<?xml version="1.0" encoding="UTF-8"?>

<!-- generated on 11/23/19 15:40:24 by Eclipse SUMO GUI Version 1.3.1
<configuration xmlns:xsi="http://www.w3.org/2001/XMLSchema-instance" xsi:noNamespaceSchemaLocation="http://sumo.dlr.de/xsd/sumoConfiguration.xsd">

    <input>
        <net-file value="quickstart.net.xml"/>
        <route-files value="quickstart.rou.xml"/>
    </input>

    <output>
        <tripinfo-output value="tripinfo.xml"/>
    </output>

    <time>
        <begin value="0"/>
        <end value="3599"/>
    </time>

    <processing>
        <time-to-teleport value="-1"/>
    </processing>

    <traci_server>
        <remote-port value="56984"/>
    </traci_server>

</configuration>
-->

<tripinfos xmlns:xsi="http://www.w3.org/2001/XMLSchema-instance" xsi:noNamespaceSchemaLocation="http://sumo.dlr.de/xsd/tripinfo_file.xsd">
    <tripinfo id="veh0" depart="0.00" departLane="-gneE3_0" departPos="7.60" departSpeed="0.00" departDelay="0.00" arrival="15.00" arrivalLane="-gneE2_0" arrivalPos="77.08" arrivalSpeed="13.83" duration="15.00" routeLength="149.57" waitingTime="0.00" waitingCount="0" stopTime="0.00" timeLoss="4.70" rerouteNo="0" devices="tripinfo_veh0" vType="CarB" speedFactor="1.06" vaporized=""/>
    <tripinfo id="veh2" depart="3.00" departLane="gneE2_0" departPos="5.10" departSpeed="0.00" departDelay="0.00" arrival="17.00" arrivalLane="gneE3_0" arrivalPos="52.87" arrivalSpeed="13.45" duration="14.00" routeLength="152.07" waitingTime="0.00" waitingCount="0" stopTime="0.00" timeLoss="2.99" rerouteNo="0" devices="tripinfo_veh2" vType="CarA" speedFactor="1.01" vaporized=""/>
    <tripinfo id="veh1" depart="4.00" departLane="-gneE3_0" departPos="7.60" departSpeed="0.00" departDelay="2.00" arrival="20.00" arrivalLane="-gneE2_0" arrivalPos="77.08" arrivalSpeed="12.17" duration="16.00" routeLength="149.57" waitingTime="0.00" waitingCount="0" stopTime="0.00" timeLoss="3.82" rerouteNo="0" devices="tripinfo_veh1" vType="CarB" speedFactor="0.94" vaporized=""/>
    <tripinfo id="veh4" depart="10.00" departLane="-gneE3_0" departPos="7.60" departSpeed="0.00" departDelay="0.00" arrival="25.00" arrivalLane="-gneE2_0" arrivalPos="77.08" arrivalSpeed="13.68" duration="15.00" routeLength="149.57" waitingTime="0.00" waitingCount="0" stopTime="0.00" timeLoss="4.39" rerouteNo="0" devices="tripinfo_veh4" vType="CarB" speedFactor="1.03" vaporized=""/>
    <tripinfo id="veh3" depart="6.00" departLane="gneE2_0" departPos="7.60" departSpeed="0.00" departDelay="2.00" arrival="26.00" arrivalLane="gneE3_0" arrivalPos="52.87" arrivalSpeed="14.64" duration="20.00" routeLength="149.57" waitingTime="0.00" waitingCount="0" stopTime="0.00" timeLoss="9.84" rerouteNo="0" devices="tripinfo_veh3" vType="CarD" speedFactor="1.08" vaporized=""/>
    <tripinfo id="veh5" depart="11.00" departLane="gneE2_0" departPos="5.10" departSpeed="0.00" departDelay="0.00" arrival="27.00" arrivalLane="gneE3_1" arrivalPos="52.87" arrivalSpeed="11.35" duration="16.00" routeLength="152.07" waitingTime="0.00" waitingCount="0" stopTime="0.00" timeLoss="2.76" rerouteNo="0" devices="tripinfo_veh5" vType="CarA" speedFactor="0.83" vaporized=""/>
    <tripinfo id="veh6" depart="16.00" departLane="gneE2_0" departPos="7.60" departSpeed="0.00" departDelay="0.00" arrival="36.00" arrivalLane="gneE3_0" arrivalPos="52.87" arrivalSpeed="14.52" duration="20.00" routeLength="149.57" waitingTime="0.00" waitingCount="0" stopTime="0.00" timeLoss="8.78" rerouteNo="0" devices="tripinfo_veh6" vType="CarD" speedFactor="1.05" vaporized=""/>
    <tripinfo id="veh7" depart="22.00" departLane="gneE2_0" departPos="5.10" departSpeed="0.00" departDelay="0.00" arrival="38.00" arrivalLane="gneE3_0" arrivalPos="52.87" arrivalSpeed="11.00" duration="16.00" routeLength="152.07" waitingTime="0.00" waitingCount="0" stopTime="0.00" timeLoss="3.30" rerouteNo="0" devices="tripinfo_veh7" vType="CarA" speedFactor="0.89" vaporized=""/>
    <tripinfo id="veh8" depart="22.00" departLane="-gneE3_0" departPos="7.60" departSpeed="0.00" departDelay="0.00" arrival="38.00" arrivalLane="-gneE2_0" arrivalPos="77.08" arrivalSpeed="12.44" duration="16.00" routeLength="149.57" waitingTime="0.00" waitingCount="0" stopTime="0.00" timeLoss="4.01" rerouteNo="0" devices="tripinfo_veh8" vType="CarB" speedFactor="0.94" vaporized=""/>
    <tripinfo id="veh9" depart="25.00" departLane="gneE2_0" departPos="5.10" departSpeed="0.00" departDelay="0.00" arrival="41.00" arrivalLane="gneE3_0" arrivalPos="52.87" arrivalSpeed="11.74" duration="16.00" routeLength="152.07" waitingTime="0.00" waitingCount="0" stopTime="0.00" timeLoss="2.32" rerouteNo="0" devices="tripinfo_veh9" vType="CarA" speedFactor="0.86" vaporized=""/>
    <tripinfo id="veh10" depart="31.00" departLane="gneE2_0" departPos="5.10" departSpeed="0.00" departDelay="0.00" arrival="44.00" arrivalLane="gneE3_0" arrivalPos="52.87" arrivalSpeed="13.94" duration="13.00" routeLength="152.07" waitingTime="0.00" waitingCount="0" stopTime="0.00" timeLoss="2.86" rerouteNo="0" devices="tripinfo_veh10" vType="CarA" speedFactor="1.09" vaporized=""/>
    <tripinfo id="veh12" depart="34.00" departLane="gneE2_0" departPos="5.10" departSpeed="0.00" departDelay="0.00" arrival="48.00" arrivalLane="gneE3_0" arrivalPos="52.87" arrivalSpeed="13.36" duration="14.00" routeLength="152.07" waitingTime="0.00" waitingCount="0" stopTime="0.00" timeLoss="3.14" rerouteNo="0" devices="tripinfo_veh12" vType="CarA" speedFactor="1.05" vaporized=""/>
    <tripinfo id="veh11" depart="31.00" departLane="-gneE3_0" departPos="5.10" departSpeed="0.00" departDelay="0.00" arrival="52.00" arrivalLane="-gneE2_0" arrivalPos="77.08" arrivalSpeed="13.98" duration="21.00" routeLength="152.07" waitingTime="0.00" waitingCount="0" stopTime="0.00" timeLoss="9.64" rerouteNo="0" devices="tripinfo_veh11" vType="CarC" speedFactor="1.03" vaporized=""/>
    <tripinfo id="veh13" depart="40.00" departLane="gneE2_0" departPos="5.10" departSpeed="0.00" departDelay="0.00" arrival="53.00" arrivalLane="gneE3_0" arrivalPos="52.87" arrivalSpeed="15.42" duration="13.00" routeLength="152.07" waitingTime="0.00" waitingCount="0" stopTime="0.00" timeLoss="2.96" rerouteNo="0" devices="tripinfo_veh13" vType="CarA" speedFactor="1.12" vaporized=""/>
    <tripinfo id="veh14" depart="41.00" departLane="-gneE3_0" departPos="7.60" departSpeed="0.00" departDelay="0.00" arrival="56.00" arrivalLane="-gneE2_0" arrivalPos="77.08" arrivalSpeed="12.99" duration="15.00" routeLength="149.57" waitingTime="0.00" waitingCount="0" stopTime="0.00" timeLoss="3.92" rerouteNo="0" devices="tripinfo_veh14" vType="CarB" speedFactor="0.99" vaporized=""/>
    <tripinfo id="veh15" depart="44.00" departLane="gneE2_0" departPos="5.10" departSpeed="0.00" departDelay="0.00" arrival="60.00" arrivalLane="gneE3_0" arrivalPos="52.87" arrivalSpeed="11.96" duration="16.00" routeLength="152.07" waitingTime="0.00" waitingCount="0" stopTime="0.00" timeLoss="3.52" rerouteNo="0" devices="tripinfo_veh15" vType="CarA" speedFactor="0.93" vaporized=""/>
    <tripinfo id="veh16" depart="49.00" departLane="-gneE3_0" departPos="7.60" departSpeed="0.00" departDelay="0.00" arrival="66.00" arrivalLane="-gneE2_0" arrivalPos="77.08" arrivalSpeed="11.43" duration="17.00" routeLength="149.57" waitingTime="0.00" waitingCount="0" stopTime="0.00" timeLoss="3.83" rerouteNo="0" devices="tripinfo_veh16" vType="CarB" speedFactor="0.88" vaporized=""/>
    <tripinfo id="veh17" depart="56.00" departLane="gneE2_0" departPos="5.10" departSpeed="0.00" departDelay="0.00" arrival="72.00" arrivalLane="gneE3_0" arrivalPos="52.87" arrivalSpeed="11.79" duration="16.00" routeLength="152.07" waitingTime="0.00" waitingCount="0" stopTime="0.00" timeLoss="3.60" rerouteNo="0" devices="tripinfo_veh17" vType="CarA" speedFactor="0.94" vaporized=""/>
    <tripinfo id="veh18" depart="63.00" departLane="gneE2_0" departPos="5.10" departSpeed="0.00" departDelay="0.00" arrival="78.00" arrivalLane="gneE3_0" arrivalPos="52.87" arrivalSpeed="12.23" duration="15.00" routeLength="152.07" waitingTime="0.00" waitingCount="0" stopTime="0.00" timeLoss="3.04" rerouteNo="0" devices="tripinfo_veh18" vType="CarA" speedFactor="0.94" vaporized=""/>
    <tripinfo id="veh19" depart="66.00" departLane="gneE2_0" departPos="5.10" departSpeed="0.00" departDelay="2.00" arrival="80.00" arrivalLane="gneE3_0" arrivalPos="52.87" arrivalSpeed="15.65" duration="14.00" routeLength="152.07" waitingTime="0.00" waitingCount="0" stopTime="0.00" timeLoss="3.83" rerouteNo="0" devices="tripinfo_veh19" vType="CarA" speedFactor="1.16" vaporized=""/>
    <tripinfo id="veh20" depart="67.00" departLane="-gneE3_0" departPos="7.60" departSpeed="0.00" departDelay="0.00" arrival="82.00" arrivalLane="-gneE2_0" arrivalPos="77.08" arrivalSpeed="13.88" duration="15.00" routeLength="149.57" waitingTime="0.00" waitingCount="0" stopTime="0.00" timeLoss="4.35" rerouteNo="0" devices="tripinfo_veh20" vType="CarB" speedFactor="1.02" vaporized=""/>
    <tripinfo id="veh21" depart="72.00" departLane="-gneE3_0" departPos="5.10" departSpeed="0.00" departDelay="0.00" arrival="92.00" arrivalLane="-gneE2_0" arrivalPos="77.08" arrivalSpeed="13.65" duration="20.00" routeLength="152.07" waitingTime="0.00" waitingCount="0" stopTime="0.00" timeLoss="8.81" rerouteNo="0" devices="tripinfo_veh21" vType="CarC" speedFactor="1.01" vaporized=""/>
    <tripinfo id="veh22" depart="77.00" departLane="-gneE3_0" departPos="7.60" departSpeed="0.00" departDelay="3.00" arrival="94.00" arrivalLane="-gneE2_0" arrivalPos="77.08" arrivalSpeed="13.12" duration="17.00" routeLength="149.57" waitingTime="0.00" waitingCount="0" stopTime="0.00" timeLoss="5.45" rerouteNo="0" devices="tripinfo_veh22" vType="CarB" speedFactor="0.98" vaporized=""/>
    <tripinfo id="veh23" depart="81.00" departLane="gneE2_0" departPos="5.10" departSpeed="0.00" departDelay="0.00" arrival="97.00" arrivalLane="gneE3_0" arrivalPos="52.87" arrivalSpeed="11.68" duration="16.00" routeLength="152.07" waitingTime="0.00" waitingCount="0" stopTime="0.00" timeLoss="3.19" rerouteNo="0" devices="tripinfo_veh23" vType="CarA" speedFactor="0.89" vaporized=""/>
    <tripinfo id="veh24" depart="85.00" departLane="-gneE3_0" departPos="5.10" departSpeed="0.00" departDelay="0.00" arrival="106.00" arrivalLane="-gneE2_0" arrivalPos="77.08" arrivalSpeed="11.31" duration="21.00" routeLength="152.07" waitingTime="0.00" waitingCount="0" stopTime="0.00" timeLoss="7.70" rerouteNo="0" devices="tripinfo_veh24" vType="CarC" speedFactor="0.83" vaporized=""/>
    <tripinfo id="veh25" depart="92.00" departLane="gneE2_0" departPos="5.10" departSpeed="0.00" departDelay="0.00" arrival="108.00" arrivalLane="gneE3_0" arrivalPos="52.87" arrivalSpeed="11.60" duration="16.00" routeLength="152.07" waitingTime="0.00" waitingCount="0" stopTime="0.00" timeLoss="2.73" rerouteNo="0" devices="tripinfo_veh25" vType="CarA" speedFactor="0.87" vaporized=""/>
    <tripinfo id="veh26" depart="98.00" departLane="-gneE3_0" departPos="5.10" departSpeed="0.00" departDelay="0.00" arrival="118.00" arrivalLane="-gneE2_0" arrivalPos="77.08" arrivalSpeed="12.34" duration="20.00" routeLength="152.07" waitingTime="0.00" waitingCount="0" stopTime="0.00" timeLoss="7.61" rerouteNo="0" devices="tripinfo_veh26" vType="CarC" speedFactor="0.92" vaporized=""/>
    <tripinfo id="veh27" depart="103.00" departLane="gneE2_0" departPos="7.60" departSpeed="0.00" departDelay="0.00" arrival="123.00" arrivalLane="gneE3_0" arrivalPos="52.87" arrivalSpeed="12.80" duration="20.00" routeLength="149.57" waitingTime="0.00" waitingCount="0" stopTime="0.00" timeLoss="7.76" rerouteNo="0" devices="tripinfo_veh27" vType="CarD" speedFactor="0.95" vaporized=""/>
    <tripinfo id="veh28" depart="108.00" departLane="gneE2_0" departPos="7.60" departSpeed="0.00" departDelay="2.00" arrival="128.00" arrivalLane="gneE3_0" arrivalPos="52.87" arrivalSpeed="14.41" duration="20.00" routeLength="149.57" waitingTime="0.00" waitingCount="0" stopTime="0.00" timeLoss="10.34" rerouteNo="0" devices="tripinfo_veh28" vType="CarD" speedFactor="1.13" vaporized=""/>
    <tripinfo id="veh29" depart="115.00" departLane="gneE2_0" departPos="5.10" departSpeed="0.00" departDelay="0.00" arrival="131.00" arrivalLane="gneE3_0" arrivalPos="52.87" arrivalSpeed="11.84" duration="16.00" routeLength="152.07" waitingTime="0.00" waitingCount="0" stopTime="0.00" timeLoss="3.42" rerouteNo="0" devices="tripinfo_veh29" vType="CarA" speedFactor="0.93" vaporized=""/>
    <tripinfo id="veh30" depart="117.00" departLane="-gneE3_0" departPos="7.60" departSpeed="0.00" departDelay="0.00" arrival="131.00" arrivalLane="-gneE2_0" arrivalPos="77.08" arrivalSpeed="15.42" duration="14.00" routeLength="149.57" waitingTime="0.00" waitingCount="0" stopTime="0.00" timeLoss="4.56" rerouteNo="0" devices="tripinfo_veh30" vType="CarB" speedFactor="1.18" vaporized=""/>
    <tripinfo id="veh31" depart="120.00" departLane="-gneE3_0" departPos="7.60" departSpeed="0.00" departDelay="0.00" arrival="136.00" arrivalLane="-gneE2_0" arrivalPos="77.08" arrivalSpeed="15.44" duration="16.00" routeLength="149.57" waitingTime="0.00" waitingCount="0" stopTime="0.00" timeLoss="5.92" rerouteNo="0" devices="tripinfo_veh31" vType="CarB" speedFactor="1.15" vaporized=""/>
    <tripinfo id="veh32" depart="124.00" departLane="-gneE3_0" departPos="7.60" departSpeed="0.00" departDelay="1.00" arrival="140.00" arrivalLane="-gneE2_0" arrivalPos="77.08" arrivalSpeed="13.54" duration="16.00" routeLength="149.57" waitingTime="1.00" waitingCount="1" stopTime="0.00" timeLoss="5.24" rerouteNo="0" devices="tripinfo_veh32" vType="CarB" speedFactor="1.01" vaporized=""/>
    <tripinfo id="veh34" depart="126.00" departLane="gneE2_0" departPos="5.10" departSpeed="0.00" departDelay="0.00" arrival="140.00" arrivalLane="gneE3_0" arrivalPos="52.87" arrivalSpeed="12.59" duration="14.00" routeLength="152.07" waitingTime="0.00" waitingCount="0" stopTime="0.00" timeLoss="2.94" rerouteNo="0" devices="tripinfo_veh34" vType="CarA" speedFactor="0.99" vaporized=""/>
    <tripinfo id="veh33" depart="129.00" departLane="-gneE3_0" departPos="7.60" departSpeed="0.00" departDelay="4.00" arrival="144.00" arrivalLane="-gneE2_0" arrivalPos="77.08" arrivalSpeed="15.89" duration="15.00" routeLength="149.57" waitingTime="0.00" waitingCount="0" stopTime="0.00" timeLoss="5.42" rerouteNo="0" devices="tripinfo_veh33" vType="CarB" speedFactor="1.17" vaporized=""/>
    <tripinfo id="veh35" depart="129.00" departLane="gneE2_0" departPos="5.10" departSpeed="0.00" departDelay="2.00" arrival="144.00" arrivalLane="gneE3_0" arrivalPos="52.87" arrivalSpeed="13.55" duration="15.00" routeLength="152.07" waitingTime="0.00" waitingCount="0" stopTime="0.00" timeLoss="3.54" rerouteNo="0" devices="tripinfo_veh35" vType="CarA" speedFactor="1.02" vaporized=""/>
    <tripinfo id="veh38" depart="132.00" departLane="gneE2_0" departPos="5.10" departSpeed="0.00" departDelay="0.00" arrival="146.00" arrivalLane="gneE3_0" arrivalPos="52.87" arrivalSpeed="15.06" duration="14.00" routeLength="152.07" waitingTime="0.00" waitingCount="0" stopTime="0.00" timeLoss="3.09" rerouteNo="0" devices="tripinfo_veh38" vType="CarA" speedFactor="1.10" vaporized=""/>
    <tripinfo id="veh36" depart="133.00" departLane="-gneE3_0" departPos="7.60" departSpeed="0.00" departDelay="4.00" arrival="149.00" arrivalLane="-gneE2_0" arrivalPos="77.08" arrivalSpeed="13.23" duration="16.00" routeLength="149.57" waitingTime="0.00" waitingCount="0" stopTime="0.00" timeLoss="4.00" rerouteNo="0" devices="tripinfo_veh36" vType="CarB" speedFactor="0.97" vaporized=""/>
    <tripinfo id="veh39" depart="135.00" departLane="gneE2_0" departPos="7.60" departSpeed="0.00" departDelay="0.00" arrival="155.00" arrivalLane="gneE3_0" arrivalPos="52.87" arrivalSpeed="12.12" duration="20.00" routeLength="149.57" waitingTime="0.00" waitingCount="0" stopTime="0.00" timeLoss="7.92" rerouteNo="0" devices="tripinfo_veh39" vType="CarD" speedFactor="0.90" vaporized=""/>
    <tripinfo id="veh37" depart="136.00" departLane="-gneE3_0" departPos="5.10" departSpeed="0.00" departDelay="7.00" arrival="156.00" arrivalLane="-gneE2_0" arrivalPos="77.08" arrivalSpeed="15.06" duration="20.00" routeLength="152.07" waitingTime="0.00" waitingCount="0" stopTime="0.00" timeLoss="9.96" rerouteNo="0" devices="tripinfo_veh37" vType="CarC" speedFactor="1.18" vaporized=""/>
    <tripinfo id="veh40" depart="141.00" departLane="-gneE3_0" departPos="7.60" departSpeed="0.00" departDelay="4.00" arrival="157.00" arrivalLane="-gneE2_0" arrivalPos="77.08" arrivalSpeed="13.44" duration="16.00" routeLength="149.57" waitingTime="0.00" waitingCount="0" stopTime="0.00" timeLoss="5.50" rerouteNo="0" devices="tripinfo_veh40" vType="CarB" speedFactor="1.03" vaporized=""/>
    <tripinfo id="veh41" depart="147.00" departLane="-gneE3_0" departPos="7.60" departSpeed="0.00" departDelay="0.00" arrival="163.00" arrivalLane="-gneE2_0" arrivalPos="77.08" arrivalSpeed="12.69" duration="16.00" routeLength="149.57" waitingTime="0.00" waitingCount="0" stopTime="0.00" timeLoss="3.84" rerouteNo="0" devices="tripinfo_veh41" vType="CarB" speedFactor="0.96" vaporized=""/>
    <tripinfo id="veh43" depart="150.00" departLane="gneE2_0" departPos="5.10" departSpeed="0.00" departDelay="0.00" arrival="164.00" arrivalLane="gneE3_0" arrivalPos="52.87" arrivalSpeed="12.98" duration="14.00" routeLength="152.07" waitingTime="0.00" waitingCount="0" stopTime="0.00" timeLoss="2.89" rerouteNo="0" devices="tripinfo_veh43" vType="CarA" speedFactor="1.04" vaporized=""/>
    <tripinfo id="veh44" depart="152.00" departLane="gneE2_0" departPos="5.10" departSpeed="0.00" departDelay="0.00" arrival="167.00" arrivalLane="gneE3_0" arrivalPos="52.87" arrivalSpeed="13.36" duration="15.00" routeLength="152.07" waitingTime="0.00" waitingCount="0" stopTime="0.00" timeLoss="4.10" rerouteNo="0" devices="tripinfo_veh44" vType="CarA" speedFactor="1.04" vaporized=""/>
    <tripinfo id="veh42" depart="150.00" departLane="-gneE3_0" departPos="5.10" departSpeed="0.00" departDelay="1.00" arrival="171.00" arrivalLane="-gneE2_0" arrivalPos="77.08" arrivalSpeed="14.77" duration="21.00" routeLength="152.07" waitingTime="0.00" waitingCount="0" stopTime="0.00" timeLoss="10.05" rerouteNo="0" devices="tripinfo_veh42" vType="CarC" speedFactor="1.09" vaporized=""/>
    <tripinfo id="veh45" depart="159.00" departLane="-gneE3_0" departPos="7.60" departSpeed="0.00" departDelay="0.00" arrival="174.00" arrivalLane="-gneE2_0" arrivalPos="77.08" arrivalSpeed="14.49" duration="15.00" routeLength="149.57" waitingTime="0.00" waitingCount="0" stopTime="0.00" timeLoss="4.73" rerouteNo="0" devices="tripinfo_veh45" vType="CarB" speedFactor="1.09" vaporized=""/>
    <tripinfo id="veh46" depart="164.00" departLane="gneE2_0" departPos="5.10" departSpeed="0.00" departDelay="0.00" arrival="179.00" arrivalLane="gneE3_0" arrivalPos="52.87" arrivalSpeed="13.27" duration="15.00" routeLength="152.07" waitingTime="0.00" waitingCount="0" stopTime="0.00" timeLoss="3.63" rerouteNo="0" devices="tripinfo_veh46" vType="CarA" speedFactor="1.00" vaporized=""/>
    <tripinfo id="veh47" depart="171.00" departLane="gneE2_0" departPos="5.10" departSpeed="0.00" departDelay="0.00" arrival="186.00" arrivalLane="gneE3_0" arrivalPos="52.87" arrivalSpeed="11.61" duration="15.00" routeLength="152.07" waitingTime="0.00" waitingCount="0" stopTime="0.00" timeLoss="2.74" rerouteNo="0" devices="tripinfo_veh47" vType="CarA" speedFactor="0.90" vaporized=""/>
    <tripinfo id="veh48" depart="179.00" departLane="gneE2_0" departPos="5.10" departSpeed="0.00" departDelay="0.00" arrival="194.00" arrivalLane="gneE3_0" arrivalPos="52.87" arrivalSpeed="12.14" duration="15.00" routeLength="152.07" waitingTime="0.00" waitingCount="0" stopTime="0.00" timeLoss="2.42" rerouteNo="0" devices="tripinfo_veh48" vType="CarA" speedFactor="0.88" vaporized=""/>
    <tripinfo id="veh49" depart="181.00" departLane="gneE2_0" departPos="5.10" departSpeed="0.00" departDelay="1.00" arrival="198.00" arrivalLane="gneE3_0" arrivalPos="52.87" arrivalSpeed="11.56" duration="17.00" routeLength="152.07" waitingTime="0.00" waitingCount="0" stopTime="0.00" timeLoss="3.57" rerouteNo="0" devices="tripinfo_veh49" vType="CarA" speedFactor="0.85" vaporized=""/>
    <tripinfo id="veh50" depart="184.00" departLane="gneE2_0" departPos="5.10" departSpeed="0.00" departDelay="2.00" arrival="200.00" arrivalLane="gneE3_0" arrivalPos="52.87" arrivalSpeed="10.69" duration="16.00" routeLength="152.07" waitingTime="0.00" waitingCount="0" stopTime="0.00" timeLoss="3.11" rerouteNo="0" devices="tripinfo_veh50" vType="CarA" speedFactor="0.85" vaporized=""/>
    <tripinfo id="veh51" depart="204.00" departLane="-gneE3_0" departPos="7.60" departSpeed="0.00" departDelay="0.00" arrival="219.00" arrivalLane="-gneE2_0" arrivalPos="77.08" arrivalSpeed="16.04" duration="15.00" routeLength="149.57" waitingTime="0.00" waitingCount="0" stopTime="0.00" timeLoss="5.19" rerouteNo="0" devices="tripinfo_veh51" vType="CarB" speedFactor="1.17" vaporized=""/>
    <tripinfo id="veh52" depart="213.00" departLane="gneE2_0" departPos="5.10" departSpeed="0.00" departDelay="0.00" arrival="228.00" arrivalLane="gneE3_0" arrivalPos="52.87" arrivalSpeed="14.07" duration="15.00" routeLength="152.07" waitingTime="0.00" waitingCount="0" stopTime="0.00" timeLoss="3.24" rerouteNo="0" devices="tripinfo_veh52" vType="CarA" speedFactor="1.02" vaporized=""/>
    <tripinfo id="veh52.1" depart="216.00" departLane="gneE2_0" departPos="5.10" departSpeed="0.00" departDelay="3.00" arrival="229.00" arrivalLane="gneE3_0" arrivalPos="52.87" arrivalSpeed="15.18" duration="13.00" routeLength="152.07" waitingTime="0.00" waitingCount="0" stopTime="0.00" timeLoss="2.68" rerouteNo="0" devices="tripinfo_veh52.1" vType="CarA" speedFactor="1.10" vaporized=""/>
    <tripinfo id="veh53" depart="218.00" departLane="gneE2_0" departPos="5.10" departSpeed="0.00" departDelay="2.00" arrival="233.00" arrivalLane="gneE3_0" arrivalPos="52.87" arrivalSpeed="12.68" duration="15.00" routeLength="152.07" waitingTime="0.00" waitingCount="0" stopTime="0.00" timeLoss="3.92" rerouteNo="0" devices="tripinfo_veh53" vType="CarA" speedFactor="1.00" vaporized=""/>
    <tripinfo id="veh54" depart="218.00" departLane="-gneE3_0" departPos="7.60" departSpeed="0.00" departDelay="0.00" arrival="235.00" arrivalLane="-gneE2_0" arrivalPos="77.08" arrivalSpeed="12.04" duration="17.00" routeLength="149.57" waitingTime="0.00" waitingCount="0" stopTime="0.00" timeLoss="4.07" rerouteNo="0" devices="tripinfo_veh54" vType="CarB" speedFactor="0.90" vaporized=""/>
    <tripinfo id="veh53.1" depart="221.00" departLane="gneE2_0" departPos="5.10" departSpeed="0.00" departDelay="5.00" arrival="236.00" arrivalLane="gneE3_0" arrivalPos="52.87" arrivalSpeed="12.67" duration="15.00" routeLength="152.07" waitingTime="0.00" waitingCount="0" stopTime="0.00" timeLoss="3.55" rerouteNo="0" devices="tripinfo_veh53.1" vType="CarA" speedFactor="1.00" vaporized=""/>
    <tripinfo id="veh54.1" depart="222.00" departLane="-gneE3_0" departPos="7.60" departSpeed="0.00" departDelay="4.00" arrival="237.00" arrivalLane="-gneE2_0" arrivalPos="77.08" arrivalSpeed="15.41" duration="15.00" routeLength="149.57" waitingTime="0.00" waitingCount="0" stopTime="0.00" timeLoss="4.87" rerouteNo="0" devices="tripinfo_veh54.1" vType="CarB" speedFactor="1.14" vaporized=""/>
    <tripinfo id="veh56" depart="227.00" departLane="gneE2_0" departPos="5.10" departSpeed="0.00" departDelay="0.00" arrival="241.00" arrivalLane="gneE3_0" arrivalPos="52.87" arrivalSpeed="14.17" duration="14.00" routeLength="152.07" waitingTime="0.00" waitingCount="0" stopTime="0.00" timeLoss="3.37" rerouteNo="0" devices="tripinfo_veh56" vType="CarA" speedFactor="1.08" vaporized=""/>
    <tripinfo id="veh56.1" depart="230.00" departLane="gneE2_0" departPos="5.10" departSpeed="0.00" departDelay="3.00" arrival="243.00" arrivalLane="gneE3_0" arrivalPos="52.87" arrivalSpeed="14.55" duration="13.00" routeLength="152.07" waitingTime="0.00" waitingCount="0" stopTime="0.00" timeLoss="3.17" rerouteNo="0" devices="tripinfo_veh56.1" vType="CarA" speedFactor="1.12" vaporized=""/>
    <tripinfo id="veh55" depart="225.00" departLane="-gneE3_0" departPos="5.10" departSpeed="0.00" departDelay="5.00" arrival="244.00" arrivalLane="-gneE2_0" arrivalPos="77.08" arrivalSpeed="13.84" duration="19.00" routeLength="152.07" waitingTime="0.00" waitingCount="0" stopTime="0.00" timeLoss="8.11" rerouteNo="0" devices="tripinfo_veh55" vType="CarC" speedFactor="1.02" vaporized=""/>
    <tripinfo id="veh55.1" depart="229.00" departLane="-gneE3_0" departPos="5.10" departSpeed="0.00" departDelay="9.00" arrival="249.00" arrivalLane="-gneE2_0" arrivalPos="77.08" arrivalSpeed="13.25" duration="20.00" routeLength="152.07" waitingTime="0.00" waitingCount="0" stopTime="0.00" timeLoss="8.24" rerouteNo="0" devices="tripinfo_veh55.1" vType="CarC" speedFactor="0.97" vaporized=""/>
    <tripinfo id="veh57" depart="234.00" departLane="-gneE3_0" departPos="7.60" departSpeed="0.00" departDelay="2.00" arrival="251.00" arrivalLane="-gneE2_0" arrivalPos="77.08" arrivalSpeed="13.73" duration="17.00" routeLength="149.57" waitingTime="0.00" waitingCount="0" stopTime="0.00" timeLoss="5.58" rerouteNo="0" devices="tripinfo_veh57" vType="CarB" speedFactor="1.02" vaporized=""/>
    <tripinfo id="veh57.1" depart="238.00" departLane="-gneE3_0" departPos="7.60" departSpeed="0.00" departDelay="6.00" arrival="254.00" arrivalLane="-gneE2_0" arrivalPos="77.08" arrivalSpeed="13.60" duration="16.00" routeLength="149.57" waitingTime="0.00" waitingCount="0" stopTime="0.00" timeLoss="4.61" rerouteNo="0" devices="tripinfo_veh57.1" vType="CarB" speedFactor="0.99" vaporized=""/>
    <tripinfo id="veh58" depart="239.00" departLane="gneE2_0" departPos="5.10" departSpeed="0.00" departDelay="0.00" arrival="254.00" arrivalLane="gneE3_0" arrivalPos="52.87" arrivalSpeed="12.44" duration="15.00" routeLength="152.07" waitingTime="0.00" waitingCount="0" stopTime="0.00" timeLoss="3.08" rerouteNo="0" devices="tripinfo_veh58" vType="CarA" speedFactor="0.94" vaporized=""/>
    <tripinfo id="veh58.1" depart="242.00" departLane="gneE2_0" departPos="5.10" departSpeed="0.00" departDelay="3.00" arrival="258.00" arrivalLane="gneE3_0" arrivalPos="52.87" arrivalSpeed="10.93" duration="16.00" routeLength="152.07" waitingTime="0.00" waitingCount="0" stopTime="0.00" timeLoss="3.11" rerouteNo="0" devices="tripinfo_veh58.1" vType="CarA" speedFactor="0.88" vaporized=""/>
    <tripinfo id="veh60" depart="245.00" departLane="gneE2_0" departPos="5.10" departSpeed="0.00" departDelay="0.00" arrival="260.00" arrivalLane="gneE3_0" arrivalPos="52.87" arrivalSpeed="13.06" duration="15.00" routeLength="152.07" waitingTime="0.00" waitingCount="0" stopTime="0.00" timeLoss="3.66" rerouteNo="0" devices="tripinfo_veh60" vType="CarA" speedFactor="1.04" vaporized=""/>
    <tripinfo id="veh59" depart="241.00" departLane="-gneE3_0" departPos="5.10" departSpeed="0.00" departDelay="0.00" arrival="262.00" arrivalLane="-gneE2_0" arrivalPos="77.08" arrivalSpeed="12.12" duration="21.00" routeLength="152.07" waitingTime="0.00" waitingCount="0" stopTime="0.00" timeLoss="8.08" rerouteNo="0" devices="tripinfo_veh59" vType="CarC" speedFactor="0.91" vaporized=""/>
    <tripinfo id="veh60.1" depart="247.00" departLane="gneE2_0" departPos="5.10" departSpeed="0.00" departDelay="2.00" arrival="262.00" arrivalLane="gneE3_0" arrivalPos="52.87" arrivalSpeed="12.99" duration="15.00" routeLength="152.07" waitingTime="1.00" waitingCount="1" stopTime="0.00" timeLoss="3.75" rerouteNo="0" devices="tripinfo_veh60.1" vType="CarA" speedFactor="1.02" vaporized=""/>
    <tripinfo id="veh59.1" depart="246.00" departLane="-gneE3_0" departPos="5.10" departSpeed="0.00" departDelay="5.00" arrival="266.00" arrivalLane="-gneE2_0" arrivalPos="77.08" arrivalSpeed="12.42" duration="20.00" routeLength="152.07" waitingTime="0.00" waitingCount="0" stopTime="0.00" timeLoss="7.86" rerouteNo="0" devices="tripinfo_veh59.1" vType="CarC" speedFactor="0.91" vaporized=""/>
    <tripinfo id="veh63" depart="253.00" departLane="-gneE3_0" departPos="7.60" departSpeed="0.00" departDelay="0.00" arrival="269.00" arrivalLane="-gneE2_0" arrivalPos="77.08" arrivalSpeed="13.01" duration="16.00" routeLength="149.57" waitingTime="0.00" waitingCount="0" stopTime="0.00" timeLoss="4.23" rerouteNo="0" devices="tripinfo_veh63" vType="CarB" speedFactor="0.96" vaporized=""/>
    <tripinfo id="veh61" depart="251.00" departLane="gneE2_0" departPos="7.60" departSpeed="0.00" departDelay="3.00" arrival="272.00" arrivalLane="gneE3_0" arrivalPos="52.87" arrivalSpeed="14.02" duration="21.00" routeLength="149.57" waitingTime="0.00" waitingCount="0" stopTime="0.00" timeLoss="9.52" rerouteNo="0" devices="tripinfo_veh61" vType="CarD" speedFactor="1.02" vaporized=""/>
    <tripinfo id="veh63.1" depart="257.00" departLane="-gneE3_0" departPos="7.60" departSpeed="0.00" departDelay="4.00" arrival="273.00" arrivalLane="-gneE2_0" arrivalPos="77.08" arrivalSpeed="12.82" duration="16.00" routeLength="149.57" waitingTime="0.00" waitingCount="0" stopTime="0.00" timeLoss="4.51" rerouteNo="0" devices="tripinfo_veh63.1" vType="CarB" speedFactor="0.98" vaporized=""/>
    <tripinfo id="veh61.1" depart="256.00" departLane="gneE2_0" departPos="7.60" departSpeed="0.00" departDelay="8.00" arrival="275.00" arrivalLane="gneE3_0" arrivalPos="52.87" arrivalSpeed="13.24" duration="19.00" routeLength="149.57" waitingTime="0.00" waitingCount="0" stopTime="0.00" timeLoss="7.75" rerouteNo="0" devices="tripinfo_veh61.1" vType="CarD" speedFactor="0.97" vaporized=""/>