<?xml version="1.0" encoding="UTF-8"?>

<!-- generated on 11/25/19 21:08:00 by Eclipse SUMO GUI Version 1.3.1
<configuration xmlns:xsi="http://www.w3.org/2001/XMLSchema-instance" xsi:noNamespaceSchemaLocation="http://sumo.dlr.de/xsd/sumoConfiguration.xsd">

    <input>
        <net-file value="map1.net.xml"/>
        <route-files value="map1.rou.xml"/>
    </input>

    <output>
        <tripinfo-output value="tripinfo.xml"/>
    </output>

    <time>
        <begin value="0"/>
        <end value="4000"/>
    </time>

    <report>
        <verbose value="true"/>
        <no-step-log value="true"/>
    </report>

    <traci_server>
        <remote-port value="57140"/>
    </traci_server>

</configuration>
-->

<tripinfos xmlns:xsi="http://www.w3.org/2001/XMLSchema-instance" xsi:noNamespaceSchemaLocation="http://sumo.dlr.de/xsd/tripinfo_file.xsd">
    <tripinfo id="veh0" depart="0.00" departLane="27592953#12_0" departPos="7.60" departSpeed="0.00" departDelay="0.00" arrival="33.00" arrivalLane="27592953#13_0" arrivalPos="553.77" arrivalSpeed="23.14" duration="33.00" routeLength="575.74" waitingTime="0.00" waitingCount="0" stopTime="0.00" timeLoss="8.39" rerouteNo="0" devices="tripinfo_veh0" vType="CarB" speedFactor="1.06" vaporized=""/>
    <tripinfo id="veh2" depart="3.00" departLane="-27592953#13_0" departPos="5.10" departSpeed="0.00" departDelay="0.00" arrival="35.00" arrivalLane="-27592953#12_0" arrivalPos="26.30" arrivalSpeed="21.97" duration="32.00" routeLength="584.85" waitingTime="0.00" waitingCount="0" stopTime="0.00" timeLoss="5.18" rerouteNo="0" devices="tripinfo_veh2" vType="CarA" speedFactor="1.01" vaporized=""/>
    <tripinfo id="veh1" depart="4.00" departLane="27592953#12_0" departPos="7.60" departSpeed="0.00" departDelay="2.00" arrival="39.00" arrivalLane="27592953#13_0" arrivalPos="553.77" arrivalSpeed="20.33" duration="35.00" routeLength="575.74" waitingTime="0.00" waitingCount="0" stopTime="0.00" timeLoss="6.65" rerouteNo="0" devices="tripinfo_veh1" vType="CarB" speedFactor="0.94" vaporized=""/>
    <tripinfo id="veh4" depart="10.00" departLane="27592953#12_0" departPos="7.60" departSpeed="0.00" departDelay="0.00" arrival="43.00" arrivalLane="27592953#13_0" arrivalPos="553.77" arrivalSpeed="22.50" duration="33.00" routeLength="575.74" waitingTime="0.00" waitingCount="0" stopTime="0.00" timeLoss="7.33" rerouteNo="0" devices="tripinfo_veh4" vType="CarB" speedFactor="1.03" vaporized=""/>
    <tripinfo id="veh3" depart="6.00" departLane="-27592953#13_0" departPos="7.60" departSpeed="0.00" departDelay="2.00" arrival="46.00" arrivalLane="-27592953#12_0" arrivalPos="26.30" arrivalSpeed="24.00" duration="40.00" routeLength="582.35" waitingTime="0.00" waitingCount="0" stopTime="0.00" timeLoss="15.44" rerouteNo="0" devices="tripinfo_veh3" vType="CarD" speedFactor="1.08" vaporized=""/>
    <tripinfo id="veh5" depart="11.00" departLane="-27592953#13_0" departPos="5.10" departSpeed="0.00" departDelay="0.00" arrival="52.00" arrivalLane="-27592953#12_0" arrivalPos="26.30" arrivalSpeed="17.74" duration="41.00" routeLength="584.85" waitingTime="0.00" waitingCount="0" stopTime="0.00" timeLoss="9.07" rerouteNo="0" devices="tripinfo_veh5" vType="CarA" speedFactor="0.83" vaporized=""/>
    <tripinfo id="veh6" depart="16.00" departLane="-27592953#13_0" departPos="7.60" departSpeed="0.00" departDelay="0.00" arrival="57.00" arrivalLane="-27592953#12_0" arrivalPos="26.30" arrivalSpeed="22.90" duration="41.00" routeLength="582.35" waitingTime="0.00" waitingCount="0" stopTime="0.00" timeLoss="15.90" rerouteNo="0" devices="tripinfo_veh6" vType="CarD" speedFactor="1.05" vaporized=""/>
    <tripinfo id="veh8" depart="22.00" departLane="27592953#12_0" departPos="7.60" departSpeed="0.00" departDelay="0.00" arrival="57.00" arrivalLane="27592953#13_0" arrivalPos="553.77" arrivalSpeed="20.57" duration="35.00" routeLength="575.74" waitingTime="0.00" waitingCount="0" stopTime="0.00" timeLoss="6.72" rerouteNo="0" devices="tripinfo_veh8" vType="CarB" speedFactor="0.94" vaporized=""/>
    <tripinfo id="veh7" depart="22.00" departLane="-27592953#13_0" departPos="5.10" departSpeed="0.00" departDelay="0.00" arrival="62.00" arrivalLane="-27592953#12_0" arrivalPos="26.30" arrivalSpeed="18.99" duration="40.00" routeLength="584.85" waitingTime="0.00" waitingCount="0" stopTime="0.00" timeLoss="9.68" rerouteNo="0" devices="tripinfo_veh7" vType="CarA" speedFactor="0.89" vaporized=""/>
    <tripinfo id="veh9" depart="25.00" departLane="-27592953#13_0" departPos="5.10" departSpeed="0.00" departDelay="0.00" arrival="64.00" arrivalLane="-27592953#12_0" arrivalPos="26.30" arrivalSpeed="18.14" duration="39.00" routeLength="584.85" waitingTime="0.00" waitingCount="0" stopTime="0.00" timeLoss="7.70" rerouteNo="0" devices="tripinfo_veh9" vType="CarA" speedFactor="0.86" vaporized=""/>
    <tripinfo id="veh10" depart="33.00" departLane="-27592953#13_0" departPos="5.10" departSpeed="0.00" departDelay="2.00" arrival="65.00" arrivalLane="-27592953#12_0" arrivalPos="26.30" arrivalSpeed="20.67" duration="32.00" routeLength="584.85" waitingTime="0.00" waitingCount="0" stopTime="0.00" timeLoss="7.77" rerouteNo="0" devices="tripinfo_veh10" vType="CarA" speedFactor="1.09" vaporized=""/>
    <tripinfo id="veh12" depart="35.00" departLane="-27592953#13_0" departPos="5.10" departSpeed="0.00" departDelay="1.00" arrival="67.00" arrivalLane="-27592953#12_0" arrivalPos="26.30" arrivalSpeed="22.38" duration="32.00" routeLength="584.85" waitingTime="1.00" waitingCount="1" stopTime="0.00" timeLoss="6.79" rerouteNo="0" devices="tripinfo_veh12" vType="CarA" speedFactor="1.05" vaporized=""/>
    <tripinfo id="veh13" depart="40.00" departLane="-27592953#13_0" departPos="5.10" departSpeed="0.00" departDelay="0.00" arrival="70.00" arrivalLane="-27592953#12_0" arrivalPos="26.30" arrivalSpeed="24.84" duration="30.00" routeLength="584.85" waitingTime="0.00" waitingCount="0" stopTime="0.00" timeLoss="6.19" rerouteNo="0" devices="tripinfo_veh13" vType="CarA" speedFactor="1.12" vaporized=""/>
    <tripinfo id="veh11" depart="31.00" departLane="27592953#12_0" departPos="5.10" departSpeed="0.00" departDelay="0.00" arrival="72.00" arrivalLane="27592953#13_0" arrivalPos="553.77" arrivalSpeed="22.77" duration="41.00" routeLength="578.24" waitingTime="0.00" waitingCount="0" stopTime="0.00" timeLoss="14.60" rerouteNo="0" devices="tripinfo_veh11" vType="CarC" speedFactor="1.03" vaporized=""/>
    <tripinfo id="veh14" depart="41.00" departLane="27592953#12_0" departPos="7.60" departSpeed="0.00" departDelay="0.00" arrival="75.00" arrivalLane="27592953#13_0" arrivalPos="553.77" arrivalSpeed="21.11" duration="34.00" routeLength="575.74" waitingTime="0.00" waitingCount="0" stopTime="0.00" timeLoss="6.92" rerouteNo="0" devices="tripinfo_veh14" vType="CarB" speedFactor="0.99" vaporized=""/>
    <tripinfo id="veh15" depart="44.00" departLane="-27592953#13_0" departPos="5.10" departSpeed="0.00" departDelay="0.00" arrival="78.00" arrivalLane="-27592953#12_0" arrivalPos="26.30" arrivalSpeed="20.12" duration="34.00" routeLength="584.85" waitingTime="0.00" waitingCount="0" stopTime="0.00" timeLoss="5.37" rerouteNo="0" devices="tripinfo_veh15" vType="CarA" speedFactor="0.93" vaporized=""/>
    <tripinfo id="veh16" depart="49.00" departLane="27592953#12_0" departPos="7.60" departSpeed="0.00" departDelay="0.00" arrival="86.00" arrivalLane="27592953#13_0" arrivalPos="553.77" arrivalSpeed="19.34" duration="37.00" routeLength="575.74" waitingTime="0.00" waitingCount="0" stopTime="0.00" timeLoss="6.33" rerouteNo="0" devices="tripinfo_veh16" vType="CarB" speedFactor="0.88" vaporized=""/>
    <tripinfo id="veh17" depart="57.00" departLane="-27592953#13_0" departPos="5.10" departSpeed="0.00" departDelay="1.00" arrival="91.00" arrivalLane="-27592953#12_0" arrivalPos="26.30" arrivalSpeed="20.61" duration="34.00" routeLength="584.85" waitingTime="0.00" waitingCount="0" stopTime="0.00" timeLoss="5.19" rerouteNo="0" devices="tripinfo_veh17" vType="CarA" speedFactor="0.94" vaporized=""/>
    <tripinfo id="veh18" depart="63.00" departLane="-27592953#13_0" departPos="5.10" departSpeed="0.00" departDelay="0.00" arrival="97.00" arrivalLane="-27592953#12_0" arrivalPos="26.30" arrivalSpeed="19.61" duration="34.00" routeLength="584.85" waitingTime="0.00" waitingCount="0" stopTime="0.00" timeLoss="5.28" rerouteNo="0" devices="tripinfo_veh18" vType="CarA" speedFactor="0.94" vaporized=""/>
    <tripinfo id="veh19" depart="66.00" departLane="-27592953#13_0" departPos="5.10" departSpeed="0.00" departDelay="2.00" arrival="98.00" arrivalLane="-27592953#12_0" arrivalPos="26.30" arrivalSpeed="21.68" duration="32.00" routeLength="584.85" waitingTime="0.00" waitingCount="0" stopTime="0.00" timeLoss="9.11" rerouteNo="0" devices="tripinfo_veh19" vType="CarA" speedFactor="1.16" vaporized=""/>
    <tripinfo id="veh20" depart="67.00" departLane="27592953#12_0" departPos="7.60" departSpeed="0.00" departDelay="0.00" arrival="101.00" arrivalLane="27592953#13_0" arrivalPos="553.77" arrivalSpeed="21.85" duration="34.00" routeLength="575.74" waitingTime="0.00" waitingCount="0" stopTime="0.00" timeLoss="7.50" rerouteNo="0" devices="tripinfo_veh20" vType="CarB" speedFactor="1.02" vaporized=""/>
    <tripinfo id="veh21" depart="72.00" departLane="27592953#12_0" departPos="5.10" departSpeed="0.00" departDelay="0.00" arrival="114.00" arrivalLane="27592953#13_0" arrivalPos="553.77" arrivalSpeed="22.07" duration="42.00" routeLength="578.24" waitingTime="0.00" waitingCount="0" stopTime="0.00" timeLoss="15.35" rerouteNo="0" devices="tripinfo_veh21" vType="CarC" speedFactor="1.01" vaporized=""/>
    <tripinfo id="veh22" depart="78.00" departLane="27592953#12_0" departPos="7.60" departSpeed="0.00" departDelay="4.00" arrival="116.00" arrivalLane="27592953#13_0" arrivalPos="553.77" arrivalSpeed="20.80" duration="38.00" routeLength="575.74" waitingTime="0.00" waitingCount="0" stopTime="0.00" timeLoss="10.35" rerouteNo="0" devices="tripinfo_veh22" vType="CarB" speedFactor="0.98" vaporized=""/>
    <tripinfo id="veh23" depart="81.00" departLane="-27592953#13_0" departPos="5.10" departSpeed="0.00" departDelay="0.00" arrival="116.00" arrivalLane="-27592953#12_0" arrivalPos="26.30" arrivalSpeed="19.06" duration="35.00" routeLength="584.85" waitingTime="0.00" waitingCount="0" stopTime="0.00" timeLoss="5.30" rerouteNo="0" devices="tripinfo_veh23" vType="CarA" speedFactor="0.89" vaporized=""/>
    <tripinfo id="veh25" depart="92.00" departLane="-27592953#13_0" departPos="5.10" departSpeed="0.00" departDelay="0.00" arrival="127.00" arrivalLane="-27592953#12_0" arrivalPos="26.30" arrivalSpeed="19.35" duration="35.00" routeLength="584.85" waitingTime="0.00" waitingCount="0" stopTime="0.00" timeLoss="4.31" rerouteNo="0" devices="tripinfo_veh25" vType="CarA" speedFactor="0.87" vaporized=""/>
    <tripinfo id="veh24" depart="85.00" departLane="27592953#12_0" departPos="5.10" departSpeed="0.00" departDelay="0.00" arrival="129.00" arrivalLane="27592953#13_0" arrivalPos="553.77" arrivalSpeed="17.85" duration="44.00" routeLength="578.24" waitingTime="0.00" waitingCount="0" stopTime="0.00" timeLoss="12.15" rerouteNo="0" devices="tripinfo_veh24" vType="CarC" speedFactor="0.83" vaporized=""/>
    <tripinfo id="veh26" depart="98.00" departLane="27592953#12_0" departPos="5.10" departSpeed="0.00" departDelay="0.00" arrival="141.00" arrivalLane="27592953#13_0" arrivalPos="553.77" arrivalSpeed="20.21" duration="43.00" routeLength="578.24" waitingTime="0.00" waitingCount="0" stopTime="0.00" timeLoss="13.93" rerouteNo="0" devices="tripinfo_veh26" vType="CarC" speedFactor="0.92" vaporized=""/>
    <tripinfo id="veh27" depart="103.00" departLane="-27592953#13_0" departPos="7.60" departSpeed="0.00" departDelay="0.00" arrival="146.00" arrivalLane="-27592953#12_0" arrivalPos="26.30" arrivalSpeed="20.88" duration="43.00" routeLength="582.35" waitingTime="0.00" waitingCount="0" stopTime="0.00" timeLoss="14.49" rerouteNo="0" devices="tripinfo_veh27" vType="CarD" speedFactor="0.95" vaporized=""/>
    <tripinfo id="veh28" depart="108.00" departLane="-27592953#13_0" departPos="7.60" departSpeed="0.00" departDelay="2.00" arrival="148.00" arrivalLane="-27592953#12_0" arrivalPos="26.30" arrivalSpeed="24.72" duration="40.00" routeLength="582.35" waitingTime="0.00" waitingCount="0" stopTime="0.00" timeLoss="16.14" rerouteNo="0" devices="tripinfo_veh28" vType="CarD" speedFactor="1.13" vaporized=""/>
    <tripinfo id="veh30" depart="117.00" departLane="27592953#12_0" departPos="7.60" departSpeed="0.00" departDelay="0.00" arrival="148.00" arrivalLane="27592953#13_0" arrivalPos="553.77" arrivalSpeed="26.04" duration="31.00" routeLength="575.74" waitingTime="0.00" waitingCount="0" stopTime="0.00" timeLoss="8.48" rerouteNo="0" devices="tripinfo_veh30" vType="CarB" speedFactor="1.18" vaporized=""/>
    <tripinfo id="veh29" depart="116.00" departLane="-27592953#13_0" departPos="5.10" departSpeed="0.00" departDelay="1.00" arrival="152.00" arrivalLane="-27592953#12_0" arrivalPos="26.30" arrivalSpeed="20.03" duration="36.00" routeLength="584.85" waitingTime="0.00" waitingCount="0" stopTime="0.00" timeLoss="7.28" rerouteNo="0" devices="tripinfo_veh29" vType="CarA" speedFactor="0.93" vaporized=""/>
    <tripinfo id="veh31" depart="120.00" departLane="27592953#12_0" departPos="7.60" departSpeed="0.00" departDelay="0.00" arrival="152.00" arrivalLane="27592953#13_0" arrivalPos="553.77" arrivalSpeed="25.19" duration="32.00" routeLength="575.74" waitingTime="0.00" waitingCount="0" stopTime="0.00" timeLoss="9.37" rerouteNo="0" devices="tripinfo_veh31" vType="CarB" speedFactor="1.15" vaporized=""/>
    <tripinfo id="veh34" depart="126.00" departLane="-27592953#13_0" departPos="5.10" departSpeed="0.00" departDelay="0.00" arrival="158.00" arrivalLane="-27592953#12_0" arrivalPos="26.30" arrivalSpeed="20.66" duration="32.00" routeLength="584.85" waitingTime="0.00" waitingCount="0" stopTime="0.00" timeLoss="5.19" rerouteNo="0" devices="tripinfo_veh34" vType="CarA" speedFactor="0.99" vaporized=""/>
    <tripinfo id="veh35" depart="129.00" departLane="-27592953#13_0" departPos="5.10" departSpeed="0.00" departDelay="2.00" arrival="160.00" arrivalLane="-27592953#12_0" arrivalPos="26.30" arrivalSpeed="21.63" duration="31.00" routeLength="584.85" waitingTime="0.00" waitingCount="0" stopTime="0.00" timeLoss="4.78" rerouteNo="0" devices="tripinfo_veh35" vType="CarA" speedFactor="1.02" vaporized=""/>
    <tripinfo id="veh32" depart="127.00" departLane="27592953#12_0" departPos="7.60" departSpeed="0.00" departDelay="4.00" arrival="161.00" arrivalLane="27592953#13_0" arrivalPos="553.77" arrivalSpeed="22.25" duration="34.00" routeLength="575.74" waitingTime="0.00" waitingCount="0" stopTime="0.00" timeLoss="7.57" rerouteNo="0" devices="tripinfo_veh32" vType="CarB" speedFactor="1.01" vaporized=""/>
    <tripinfo id="veh33" depart="131.00" departLane="27592953#12_0" departPos="7.60" departSpeed="0.00" departDelay="6.00" arrival="162.00" arrivalLane="27592953#13_0" arrivalPos="553.77" arrivalSpeed="24.80" duration="31.00" routeLength="575.74" waitingTime="0.00" waitingCount="0" stopTime="0.00" timeLoss="8.81" rerouteNo="0" devices="tripinfo_veh33" vType="CarB" speedFactor="1.17" vaporized=""/>
    <tripinfo id="veh38" depart="132.00" departLane="-27592953#13_0" departPos="5.10" departSpeed="0.00" departDelay="0.00" arrival="162.00" arrivalLane="-27592953#12_0" arrivalPos="26.30" arrivalSpeed="23.60" duration="30.00" routeLength="584.85" waitingTime="0.00" waitingCount="0" stopTime="0.00" timeLoss="5.26" rerouteNo="0" devices="tripinfo_veh38" vType="CarA" speedFactor="1.10" vaporized=""/>
    <tripinfo id="veh36" depart="135.00" departLane="27592953#12_0" departPos="7.60" departSpeed="0.00" departDelay="6.00" arrival="169.00" arrivalLane="27592953#13_0" arrivalPos="553.77" arrivalSpeed="21.36" duration="34.00" routeLength="575.74" waitingTime="0.00" waitingCount="0" stopTime="0.00" timeLoss="7.04" rerouteNo="0" devices="tripinfo_veh36" vType="CarB" speedFactor="0.97" vaporized=""/>
    <tripinfo id="veh39" depart="135.00" departLane="-27592953#13_0" departPos="7.60" departSpeed="0.00" departDelay="0.00" arrival="178.00" arrivalLane="-27592953#12_0" arrivalPos="26.30" arrivalSpeed="19.89" duration="43.00" routeLength="582.35" waitingTime="0.00" waitingCount="0" stopTime="0.00" timeLoss="13.65" rerouteNo="0" devices="tripinfo_veh39" vType="CarD" speedFactor="0.90" vaporized=""/>
    <tripinfo id="veh37" depart="138.00" departLane="27592953#12_0" departPos="5.10" departSpeed="0.00" departDelay="9.00" arrival="179.00" arrivalLane="27592953#13_0" arrivalPos="553.77" arrivalSpeed="25.79" duration="41.00" routeLength="578.24" waitingTime="1.00" waitingCount="1" stopTime="0.00" timeLoss="18.72" rerouteNo="0" devices="tripinfo_veh37" vType="CarC" speedFactor="1.18" vaporized=""/>
    <tripinfo id="veh40" depart="148.00" departLane="27592953#12_0" departPos="7.60" departSpeed="0.00" departDelay="11.00" arrival="182.00" arrivalLane="27592953#13_0" arrivalPos="553.77" arrivalSpeed="22.12" duration="34.00" routeLength="575.74" waitingTime="0.00" waitingCount="0" stopTime="0.00" timeLoss="8.38" rerouteNo="0" devices="tripinfo_veh40" vType="CarB" speedFactor="1.03" vaporized=""/>
    <tripinfo id="veh43" depart="152.00" departLane="-27592953#13_0" departPos="5.10" departSpeed="0.00" departDelay="2.00" arrival="184.00" arrivalLane="-27592953#12_0" arrivalPos="26.30" arrivalSpeed="21.95" duration="32.00" routeLength="584.85" waitingTime="0.00" waitingCount="0" stopTime="0.00" timeLoss="6.02" rerouteNo="0" devices="tripinfo_veh43" vType="CarA" speedFactor="1.04" vaporized=""/>
    <tripinfo id="veh44" depart="155.00" departLane="-27592953#13_0" departPos="5.10" departSpeed="0.00" departDelay="3.00" arrival="186.00" arrivalLane="-27592953#12_0" arrivalPos="26.30" arrivalSpeed="21.72" duration="31.00" routeLength="584.85" waitingTime="0.00" waitingCount="0" stopTime="0.00" timeLoss="5.51" rerouteNo="0" devices="tripinfo_veh44" vType="CarA" speedFactor="1.04" vaporized=""/>
    <tripinfo id="veh41" depart="152.00" departLane="27592953#12_0" departPos="7.60" departSpeed="0.00" departDelay="5.00" arrival="187.00" arrivalLane="27592953#13_0" arrivalPos="553.77" arrivalSpeed="20.73" duration="35.00" routeLength="575.74" waitingTime="0.00" waitingCount="0" stopTime="0.00" timeLoss="7.40" rerouteNo="0" devices="tripinfo_veh41" vType="CarB" speedFactor="0.96" vaporized=""/>
    <tripinfo id="veh42" depart="155.00" departLane="27592953#12_0" departPos="5.10" departSpeed="0.00" departDelay="6.00" arrival="196.00" arrivalLane="27592953#13_0" arrivalPos="553.77" arrivalSpeed="24.11" duration="41.00" routeLength="578.24" waitingTime="0.00" waitingCount="0" stopTime="0.00" timeLoss="16.18" rerouteNo="0" devices="tripinfo_veh42" vType="CarC" speedFactor="1.09" vaporized=""/>
    <tripinfo id="veh46" depart="164.00" departLane="-27592953#13_0" departPos="5.10" departSpeed="0.00" departDelay="0.00" arrival="196.00" arrivalLane="-27592953#12_0" arrivalPos="26.30" arrivalSpeed="21.13" duration="32.00" routeLength="584.85" waitingTime="0.00" waitingCount="0" stopTime="0.00" timeLoss="4.85" rerouteNo="0" devices="tripinfo_veh46" vType="CarA" speedFactor="1.00" vaporized=""/>
    <tripinfo id="veh45" depart="162.00" departLane="27592953#12_0" departPos="7.60" departSpeed="0.00" departDelay="3.00" arrival="197.00" arrivalLane="27592953#13_0" arrivalPos="553.77" arrivalSpeed="23.67" duration="35.00" routeLength="575.74" waitingTime="0.00" waitingCount="0" stopTime="0.00" timeLoss="10.65" rerouteNo="0" devices="tripinfo_veh45" vType="CarB" speedFactor="1.09" vaporized=""/>
    <tripinfo id="veh47" depart="171.00" departLane="-27592953#13_0" departPos="5.10" departSpeed="0.00" departDelay="0.00" arrival="206.00" arrivalLane="-27592953#12_0" arrivalPos="26.30" arrivalSpeed="19.99" duration="35.00" routeLength="584.85" waitingTime="0.00" waitingCount="0" stopTime="0.00" timeLoss="5.22" rerouteNo="0" devices="tripinfo_veh47" vType="CarA" speedFactor="0.90" vaporized=""/>
    <tripinfo id="veh48" depart="179.00" departLane="-27592953#13_0" departPos="5.10" departSpeed="0.00" departDelay="0.00" arrival="214.00" arrivalLane="-27592953#12_0" arrivalPos="26.30" arrivalSpeed="19.44" duration="35.00" routeLength="584.85" waitingTime="0.00" waitingCount="0" stopTime="0.00" timeLoss="4.38" rerouteNo="0" devices="tripinfo_veh48" vType="CarA" speedFactor="0.88" vaporized=""/>
    <tripinfo id="veh49" depart="182.00" departLane="-27592953#13_0" departPos="5.10" departSpeed="0.00" departDelay="2.00" arrival="218.00" arrivalLane="-27592953#12_0" arrivalPos="26.30" arrivalSpeed="18.17" duration="36.00" routeLength="584.85" waitingTime="0.00" waitingCount="0" stopTime="0.00" timeLoss="4.99" rerouteNo="0" devices="tripinfo_veh49" vType="CarA" speedFactor="0.85" vaporized=""/>
    <tripinfo id="veh50" depart="187.00" departLane="-27592953#13_0" departPos="5.10" departSpeed="0.00" departDelay="5.00" arrival="223.00" arrivalLane="-27592953#12_0" arrivalPos="26.30" arrivalSpeed="18.13" duration="36.00" routeLength="584.85" waitingTime="0.00" waitingCount="0" stopTime="0.00" timeLoss="4.54" rerouteNo="0" devices="tripinfo_veh50" vType="CarA" speedFactor="0.85" vaporized=""/>
    <tripinfo id="veh51" depart="206.00" departLane="27592953#12_0" departPos="7.60" departSpeed="0.00" departDelay="2.00" arrival="238.00" arrivalLane="27592953#13_0" arrivalPos="553.77" arrivalSpeed="25.09" duration="32.00" routeLength="575.74" waitingTime="0.00" waitingCount="0" stopTime="0.00" timeLoss="9.17" rerouteNo="0" devices="tripinfo_veh51" vType="CarB" speedFactor="1.17" vaporized=""/>
    <tripinfo id="veh52" depart="213.00" departLane="-27592953#13_0" departPos="5.10" departSpeed="0.00" departDelay="0.00" arrival="244.00" arrivalLane="-27592953#12_0" arrivalPos="26.30" arrivalSpeed="22.22" duration="31.00" routeLength="584.85" waitingTime="0.00" waitingCount="0" stopTime="0.00" timeLoss="5.00" rerouteNo="0" devices="tripinfo_veh52" vType="CarA" speedFactor="1.02" vaporized=""/>
    <tripinfo id="veh53" depart="216.00" departLane="-27592953#13_0" departPos="5.10" departSpeed="0.00" departDelay="0.00" arrival="246.00" arrivalLane="-27592953#12_0" arrivalPos="26.30" arrivalSpeed="23.18" duration="30.00" routeLength="584.85" waitingTime="0.00" waitingCount="0" stopTime="0.00" timeLoss="5.73" rerouteNo="0" devices="tripinfo_veh53" vType="CarA" speedFactor="1.10" vaporized=""/>
    <tripinfo id="veh54" depart="218.00" departLane="27592953#12_0" departPos="7.60" departSpeed="0.00" departDelay="0.00" arrival="252.00" arrivalLane="27592953#13_0" arrivalPos="553.77" arrivalSpeed="21.79" duration="34.00" routeLength="575.74" waitingTime="0.00" waitingCount="0" stopTime="0.00" timeLoss="7.21" rerouteNo="0" devices="tripinfo_veh54" vType="CarB" speedFactor="1.00" vaporized=""/>
    <tripinfo id="veh56" depart="227.00" departLane="-27592953#13_0" departPos="5.10" departSpeed="0.00" departDelay="0.00" arrival="262.00" arrivalLane="-27592953#12_0" arrivalPos="26.30" arrivalSpeed="18.94" duration="35.00" routeLength="584.85" waitingTime="0.00" waitingCount="0" stopTime="0.00" timeLoss="5.08" rerouteNo="0" devices="tripinfo_veh56" vType="CarA" speedFactor="0.90" vaporized=""/>
    <tripinfo id="veh55" depart="223.00" departLane="27592953#12_0" departPos="5.10" departSpeed="0.00" departDelay="3.00" arrival="264.00" arrivalLane="27592953#13_0" arrivalPos="553.77" arrivalSpeed="22.06" duration="41.00" routeLength="578.24" waitingTime="0.00" waitingCount="0" stopTime="0.00" timeLoss="14.53" rerouteNo="0" devices="tripinfo_veh55" vType="CarC" speedFactor="1.00" vaporized=""/>
    <tripinfo id="veh57" depart="232.00" departLane="27592953#12_0" departPos="7.60" departSpeed="0.00" departDelay="0.00" arrival="266.00" arrivalLane="27592953#13_0" arrivalPos="553.77" arrivalSpeed="25.27" duration="34.00" routeLength="575.74" waitingTime="0.00" waitingCount="0" stopTime="0.00" timeLoss="10.50" rerouteNo="0" devices="tripinfo_veh57" vType="CarB" speedFactor="1.14" vaporized=""/>
    <tripinfo id="veh58" depart="239.00" departLane="-27592953#13_0" departPos="5.10" departSpeed="0.00" departDelay="0.00" arrival="270.00" arrivalLane="-27592953#12_0" arrivalPos="26.30" arrivalSpeed="22.27" duration="31.00" routeLength="584.85" waitingTime="0.00" waitingCount="0" stopTime="0.00" timeLoss="5.23" rerouteNo="0" devices="tripinfo_veh58" vType="CarA" speedFactor="1.02" vaporized=""/>
    <tripinfo id="veh60" depart="245.00" departLane="-27592953#13_0" departPos="5.10" departSpeed="0.00" departDelay="0.00" arrival="275.00" arrivalLane="-27592953#12_0" arrivalPos="26.30" arrivalSpeed="23.66" duration="30.00" routeLength="584.85" waitingTime="0.00" waitingCount="0" stopTime="0.00" timeLoss="5.21" rerouteNo="0" devices="tripinfo_veh60" vType="CarA" speedFactor="1.08" vaporized=""/>
    <tripinfo id="veh59" depart="241.00" departLane="27592953#12_0" departPos="5.10" departSpeed="0.00" departDelay="0.00" arrival="283.00" arrivalLane="27592953#13_0" arrivalPos="553.77" arrivalSpeed="21.32" duration="42.00" routeLength="578.24" waitingTime="0.00" waitingCount="0" stopTime="0.00" timeLoss="14.79" rerouteNo="0" devices="tripinfo_veh59" vType="CarC" speedFactor="0.97" vaporized=""/>
    <tripinfo id="veh63" depart="253.00" departLane="27592953#12_0" departPos="7.60" departSpeed="0.00" departDelay="0.00" arrival="287.00" arrivalLane="27592953#13_0" arrivalPos="553.77" arrivalSpeed="21.56" duration="34.00" routeLength="575.74" waitingTime="0.00" waitingCount="0" stopTime="0.00" timeLoss="7.01" rerouteNo="0" devices="tripinfo_veh63" vType="CarB" speedFactor="0.99" vaporized=""/>
    <tripinfo id="veh61" depart="248.00" departLane="-27592953#13_0" departPos="7.60" departSpeed="0.00" departDelay="0.00" arrival="288.00" arrivalLane="-27592953#12_0" arrivalPos="26.30" arrivalSpeed="24.63" duration="40.00" routeLength="582.35" waitingTime="0.00" waitingCount="0" stopTime="0.00" timeLoss="16.32" rerouteNo="0" devices="tripinfo_veh61" vType="CarD" speedFactor="1.12" vaporized=""/>
    <tripinfo id="veh62" depart="252.00" departLane="-27592953#13_0" departPos="5.10" departSpeed="0.00" departDelay="2.00" arrival="291.00" arrivalLane="-27592953#12_0" arrivalPos="26.30" arrivalSpeed="22.10" duration="39.00" routeLength="584.85" waitingTime="0.00" waitingCount="0" stopTime="0.00" timeLoss="12.63" rerouteNo="0" devices="tripinfo_veh62" vType="CarA" speedFactor="1.02" vaporized=""/>
    <tripinfo id="veh69" depart="266.00" departLane="-27592953#13_0" departPos="5.10" departSpeed="0.00" departDelay="0.00" arrival="297.00" arrivalLane="-27592953#12_0" arrivalPos="26.30" arrivalSpeed="21.86" duration="31.00" routeLength="584.85" waitingTime="0.00" waitingCount="0" stopTime="0.00" timeLoss="4.98" rerouteNo="0" devices="tripinfo_veh69" vType="CarA" speedFactor="1.02" vaporized=""/>
    <tripinfo id="veh64" depart="256.00" departLane="27592953#12_0" departPos="5.10" departSpeed="0.00" departDelay="0.00" arrival="298.00" arrivalLane="27592953#13_0" arrivalPos="553.77" arrivalSpeed="20.48" duration="42.00" routeLength="578.24" waitingTime="0.00" waitingCount="0" stopTime="0.00" timeLoss="13.81" rerouteNo="0" devices="tripinfo_veh64" vType="CarC" speedFactor="0.94" vaporized=""/>
    <tripinfo id="veh65" depart="262.00" departLane="27592953#12_0" departPos="7.60" departSpeed="0.00" departDelay="4.00" arrival="301.00" arrivalLane="27592953#13_0" arrivalPos="553.77" arrivalSpeed="18.77" duration="39.00" routeLength="575.74" waitingTime="0.00" waitingCount="0" stopTime="0.00" timeLoss="9.26" rerouteNo="0" devices="tripinfo_veh65" vType="CarB" speedFactor="0.88" vaporized=""/>
    <tripinfo id="veh66" depart="265.00" departLane="27592953#12_0" departPos="5.10" departSpeed="0.00" departDelay="7.00" arrival="307.00" arrivalLane="27592953#13_0" arrivalPos="553.77" arrivalSpeed="19.75" duration="42.00" routeLength="578.24" waitingTime="0.00" waitingCount="0" stopTime="0.00" timeLoss="12.97" rerouteNo="0" devices="tripinfo_veh66" vType="CarC" speedFactor="0.91" vaporized=""/>
    <tripinfo id="veh67" depart="270.00" departLane="27592953#12_0" departPos="7.60" departSpeed="0.00" departDelay="8.00" arrival="309.00" arrivalLane="27592953#13_0" arrivalPos="553.77" arrivalSpeed="20.07" duration="39.00" routeLength="575.74" waitingTime="0.00" waitingCount="0" stopTime="0.00" timeLoss="10.05" rerouteNo="0" devices="tripinfo_veh67" vType="CarB" speedFactor="0.91" vaporized=""/>
    <tripinfo id="veh68" depart="275.00" departLane="27592953#12_0" departPos="7.60" departSpeed="0.00" departDelay="10.00" arrival="310.00" arrivalLane="27592953#13_0" arrivalPos="553.77" arrivalSpeed="20.57" duration="35.00" routeLength="575.74" waitingTime="0.00" waitingCount="0" stopTime="0.00" timeLoss="9.88" rerouteNo="0" devices="tripinfo_veh68" vType="CarB" speedFactor="1.04" vaporized=""/>
    <tripinfo id="veh70" depart="281.00" departLane="27592953#12_0" departPos="7.60" departSpeed="0.00" departDelay="0.00" arrival="314.00" arrivalLane="27592953#13_0" arrivalPos="553.77" arrivalSpeed="21.84" duration="33.00" routeLength="575.74" waitingTime="0.00" waitingCount="0" stopTime="0.00" timeLoss="7.28" rerouteNo="0" devices="tripinfo_veh70" vType="CarB" speedFactor="1.02" vaporized=""/>
    <tripinfo id="veh71" depart="288.00" departLane="27592953#12_0" departPos="7.60" departSpeed="0.00" departDelay="5.00" arrival="323.00" arrivalLane="27592953#13_0" arrivalPos="553.77" arrivalSpeed="20.98" duration="35.00" routeLength="575.74" waitingTime="0.00" waitingCount="0" stopTime="0.00" timeLoss="7.38" rerouteNo="0" devices="tripinfo_veh71" vType="CarB" speedFactor="0.97" vaporized=""/>