<?xml version="1.0" encoding="UTF-8"?>

<!-- generated on 12/16/19 15:17:59 by Eclipse SUMO GUI Version 1.3.1
<configuration xmlns:xsi="http://www.w3.org/2001/XMLSchema-instance" xsi:noNamespaceSchemaLocation="http://sumo.dlr.de/xsd/sumoConfiguration.xsd">

    <input>
        <net-file value="C:\Users\AvisChiu\Desktop\sumo-1.3.1\bin\document\create%20demand\cross.net.xml"/>
        <route-files value="C:\Users\AvisChiu\Desktop\sumo-1.3.1\bin\document\create%20demand\ex_ROU.rou.xml"/>
    </input>

    <output>
        <netstate-dump value="C:\Users\AvisChiu\Desktop\sumo-1.3.1\bin\document\create%20demand\ex_sumo.sumo.tr"/>
        <tripinfo-output value="C:\Users\AvisChiu\Desktop\sumo-1.3.1\bin\document\create%20demand\output-tripinfos.xml"/>
        <vehroute-output value="C:\Users\AvisChiu\Desktop\sumo-1.3.1\bin\document\create%20demand\output-vehroutes.xml"/>
    </output>

    <time>
        <begin value="0"/>
        <end value="1010"/>
    </time>

    <processing>
        <route-steps value="-1"/>
        <time-to-teleport value="-1"/>
    </processing>

    <report>
        <print-options value="false"/>
    </report>

    <random_number>
        <seed value="23423"/>
    </random_number>

</configuration>
-->

<netstate xmlns:xsi="http://www.w3.org/2001/XMLSchema-instance" xsi:noNamespaceSchemaLocation="http://sumo.dlr.de/xsd/netstate_file.xsd">
    <timestep time="0.00">
        <edge id="1i">
            <lane id="1i_0">
                <vehicle id="flow0.0" pos="5.10" speed="0.00"/>
            </lane>
        </edge>
        <edge id="2i">
            <lane id="2i_0">
                <vehicle id="flow1.0" pos="5.10" speed="0.00"/>
            </lane>
        </edge>
        <edge id="3i">
            <lane id="3i_0">
                <vehicle id="flow3.0" pos="5.10" speed="0.00"/>
            </lane>
        </edge>
        <edge id="4i">
            <lane id="4i_0">
                <vehicle id="flow2.0" pos="5.10" speed="0.00"/>
            </lane>
        </edge>
    </timestep>
    <timestep time="1.00">
        <edge id="1i">
            <lane id="1i_0">
                <vehicle id="flow0.0" pos="6.61" speed="1.51"/>
            </lane>
        </edge>
        <edge id="2i">
            <lane id="2i_0">
                <vehicle id="flow1.0" pos="6.64" speed="1.54"/>
            </lane>
        </edge>
        <edge id="3i">
            <lane id="3i_0">
                <vehicle id="flow3.0" pos="6.68" speed="1.58"/>
            </lane>
        </edge>
        <edge id="4i">
            <lane id="4i_0">
                <vehicle id="flow2.0" pos="6.98" speed="1.88"/>
            </lane>
        </edge>
    </timestep>
    <timestep time="2.00">
        <edge id="1i">
            <lane id="1i_0">
                <vehicle id="flow0.0" pos="10.31" speed="3.70"/>
            </lane>
        </edge>
        <edge id="2i">
            <lane id="2i_0">
                <vehicle id="flow1.0" pos="9.59" speed="2.95"/>
            </lane>
        </edge>
        <edge id="3i">
            <lane id="3i_0">
                <vehicle id="flow3.0" pos="10.64" speed="3.96"/>
            </lane>
        </edge>
        <edge id="4i">
            <lane id="4i_0">
                <vehicle id="flow2.0" pos="10.80" speed="3.82"/>
            </lane>
        </edge>
    </timestep>
    <timestep time="3.00">
        <edge id="1i">
            <lane id="1i_0">
                <vehicle id="flow0.0" pos="16.46" speed="6.15"/>
            </lane>
        </edge>
        <edge id="2i">
            <lane id="2i_0">
                <vehicle id="flow1.0" pos="14.57" speed="4.99"/>
            </lane>
        </edge>
        <edge id="3i">
            <lane id="3i_0">
                <vehicle id="flow3.0" pos="16.20" speed="5.57"/>
            </lane>
        </edge>
        <edge id="4i">
            <lane id="4i_0">
                <vehicle id="flow2.0" pos="17.05" speed="6.25"/>
            </lane>
        </edge>
    </timestep>
    <timestep time="4.00">
        <edge id="1i">
            <lane id="1i_0">
                <vehicle id="flow0.0" pos="24.57" speed="8.12"/>
            </lane>
        </edge>
        <edge id="2i">
            <lane id="2i_0">
                <vehicle id="flow1.0" pos="21.13" speed="6.55"/>
            </lane>
        </edge>
        <edge id="3i">
            <lane id="3i_0">
                <vehicle id="flow3.0" pos="24.02" speed="7.82"/>
            </lane>
        </edge>
        <edge id="4i">
            <lane id="4i_0">
                <vehicle id="flow2.0" pos="25.09" speed="8.04"/>
            </lane>
        </edge>
    </timestep>
    <timestep time="5.00">
        <edge id="1i">
            <lane id="1i_0">
                <vehicle id="flow0.0" pos="34.42" speed="9.85"/>
            </lane>
        </edge>
        <edge id="2i">
            <lane id="2i_0">
                <vehicle id="flow1.0" pos="29.40" speed="8.28"/>
            </lane>
        </edge>
        <edge id="3i">
            <lane id="3i_0">
                <vehicle id="flow3.0" pos="34.05" speed="10.03"/>
            </lane>
        </edge>
        <edge id="4i">
            <lane id="4i_0">
                <vehicle id="flow2.0" pos="34.93" speed="9.85"/>
            </lane>
        </edge>
    </timestep>
    <timestep time="6.00">
        <edge id="1i">
            <lane id="1i_0">
                <vehicle id="flow0.0" pos="45.71" speed="11.29"/>
            </lane>
        </edge>
        <edge id="2i">
            <lane id="2i_0">
                <vehicle id="flow1.0" pos="39.42" speed="10.02"/>
            </lane>
        </edge>
        <edge id="3i">
            <lane id="3i_0">
                <vehicle id="flow3.0" pos="46.22" speed="12.17"/>
            </lane>
        </edge>
        <edge id="4i">
            <lane id="4i_0">
                <vehicle id="flow2.0" pos="46.68" speed="11.74"/>
            </lane>
        </edge>
    </timestep>
    <timestep time="7.00">
        <edge id="1i">
            <lane id="1i_0">
                <vehicle id="flow0.0" pos="58.99" speed="13.28"/>
            </lane>
        </edge>
        <edge id="2i">
            <lane id="2i_0">
                <vehicle id="flow1.0" pos="51.74" speed="12.32"/>
            </lane>
        </edge>
        <edge id="3i">
            <lane id="3i_0">
                <vehicle id="flow3.0" pos="59.96" speed="13.73"/>
            </lane>
        </edge>
        <edge id="4i">
            <lane id="4i_0">
                <vehicle id="flow2.0" pos="60.92" speed="14.24"/>
            </lane>
        </edge>
    </timestep>
    <timestep time="8.00">
        <edge id="1i">
            <lane id="1i_0">
                <vehicle id="flow0.0" pos="74.50" speed="15.51"/>
            </lane>
        </edge>
        <edge id="2i">
            <lane id="2i_0">
                <vehicle id="flow1.0" pos="66.31" speed="14.57"/>
            </lane>
        </edge>
        <edge id="3i">
            <lane id="3i_0">
                <vehicle id="flow3.0" pos="75.40" speed="15.44"/>
            </lane>
        </edge>
        <edge id="4i">
            <lane id="4i_0">
                <vehicle id="flow2.0" pos="76.48" speed="15.56"/>
            </lane>
        </edge>
    </timestep>
    <timestep time="9.00">
        <edge id="1i">
            <lane id="1i_0">
                <vehicle id="flow0.0" pos="91.83" speed="17.33"/>
            </lane>
        </edge>
        <edge id="2i">
            <lane id="2i_0">
                <vehicle id="flow1.0" pos="83.02" speed="16.71"/>
            </lane>
        </edge>
        <edge id="3i">
            <lane id="3i_0">
                <vehicle id="flow3.0" pos="92.17" speed="16.77"/>
            </lane>
        </edge>
        <edge id="4i">
            <lane id="4i_0">
                <vehicle id="flow2.0" pos="94.17" speed="17.68"/>
            </lane>
        </edge>
    </timestep>
    <timestep time="10.00">
        <edge id="1i">
            <lane id="1i_0">
                <vehicle id="flow0.1" pos="5.10" speed="0.00"/>
                <vehicle id="flow0.0" pos="111.40" speed="19.57"/>
            </lane>
        </edge>
        <edge id="2i">
            <lane id="2i_0">
                <vehicle id="flow1.1" pos="5.10" speed="0.00"/>
                <vehicle id="flow1.0" pos="100.59" speed="17.57"/>
            </lane>
        </edge>
        <edge id="3i">
            <lane id="3i_0">
                <vehicle id="flow3.1" pos="5.10" speed="0.00"/>
                <vehicle id="flow3.0" pos="111.19" speed="19.02"/>
            </lane>
        </edge>
        <edge id="4i">
            <lane id="4i_0">
                <vehicle id="flow2.1" pos="5.10" speed="0.00"/>
                <vehicle id="flow2.0" pos="113.00" speed="18.84"/>
            </lane>
        </edge>
    </timestep>
    <timestep time="11.00">
        <edge id="1i">
            <lane id="1i_0">
                <vehicle id="flow0.1" pos="7.61" speed="2.51"/>
                <vehicle id="flow0.0" pos="131.24" speed="19.84"/>
            </lane>
        </edge>
        <edge id="2i">
            <lane id="2i_0">
                <vehicle id="flow1.1" pos="7.55" speed="2.45"/>
                <vehicle id="flow1.0" pos="118.54" speed="17.95"/>
            </lane>
        </edge>
        <edge id="3i">
            <lane id="3i_0">
                <vehicle id="flow3.1" pos="7.57" speed="2.47"/>
                <vehicle id="flow3.0" pos="131.35" speed="20.16"/>
            </lane>
        </edge>
        <edge id="4i">
            <lane id="4i_0">
                <vehicle id="flow2.1" pos="7.27" speed="2.17"/>
                <vehicle id="flow2.0" pos="132.26" speed="19.25"/>
            </lane>
        </edge>
    </timestep>
    <timestep time="12.00">
        <edge id="1i">
            <lane id="1i_0">
                <vehicle id="flow0.1" pos="12.39" speed="4.78"/>
                <vehicle id="flow0.0" pos="151.44" speed="20.19"/>
            </lane>
        </edge>
        <edge id="2i">
            <lane id="2i_0">
                <vehicle id="flow1.1" pos="12.23" speed="4.69"/>
                <vehicle id="flow1.0" pos="136.64" speed="18.11"/>
            </lane>
        </edge>
        <edge id="3i">
            <lane id="3i_0">
                <vehicle id="flow3.1" pos="11.44" speed="3.87"/>
                <vehicle id="flow3.0" pos="151.21" speed="19.87"/>
            </lane>
        </edge>
        <edge id="4i">
            <lane id="4i_0">
                <vehicle id="flow2.1" pos="11.93" speed="4.67"/>
                <vehicle id="flow2.0" pos="151.32" speed="19.07"/>
            </lane>
        </edge>
    </timestep>
    <timestep time="13.00">
        <edge id="1i">
            <lane id="1i_0">
                <vehicle id="flow0.1" pos="18.73" speed="6.34"/>
                <vehicle id="flow0.0" pos="171.78" speed="20.34"/>
            </lane>
        </edge>
        <edge id="2i">
            <lane id="2i_0">
                <vehicle id="flow1.1" pos="19.13" speed="6.90"/>
                <vehicle id="flow1.0" pos="154.08" speed="17.44"/>
            </lane>
        </edge>
        <edge id="3i">
            <lane id="3i_0">
                <vehicle id="flow3.1" pos="17.19" speed="5.74"/>
                <vehicle id="flow3.0" pos="171.63" speed="20.41"/>
            </lane>
        </edge>
        <edge id="4i">
            <lane id="4i_0">
                <vehicle id="flow2.1" pos="18.68" speed="6.74"/>
                <vehicle id="flow2.0" pos="170.00" speed="18.68"/>
            </lane>
        </edge>
    </timestep>
    <timestep time="14.00">
        <edge id="1i">
            <lane id="1i_0">
                <vehicle id="flow0.1" pos="27.06" speed="8.33"/>
                <vehicle id="flow0.0" pos="191.25" speed="19.47"/>
            </lane>
        </edge>
        <edge id="2i">
            <lane id="2i_0">
                <vehicle id="flow1.1" pos="27.54" speed="8.41"/>
                <vehicle id="flow1.0" pos="171.24" speed="17.16"/>
            </lane>
        </edge>
        <edge id="3i">
            <lane id="3i_0">
                <vehicle id="flow3.1" pos="25.35" speed="8.17"/>
                <vehicle id="flow3.0" pos="191.74" speed="20.11"/>
            </lane>
        </edge>
        <edge id="4i">
            <lane id="4i_0">
                <vehicle id="flow2.1" pos="27.82" speed="9.15"/>
                <vehicle id="flow2.0" pos="188.36" speed="18.36"/>
            </lane>
        </edge>
    </timestep>
    <timestep time="15.00">
        <edge id="1i">
            <lane id="1i_0">
                <vehicle id="flow0.1" pos="37.79" speed="10.74"/>
                <vehicle id="flow0.0" pos="211.82" speed="20.57"/>
            </lane>
        </edge>
        <edge id="2i">
            <lane id="2i_0">
                <vehicle id="flow1.1" pos="37.28" speed="9.73"/>
                <vehicle id="flow1.0" pos="188.83" speed="17.60"/>
            </lane>
        </edge>
        <edge id="3i">
            <lane id="3i_0">
                <vehicle id="flow3.1" pos="35.88" speed="10.53"/>
                <vehicle id="flow3.0" pos="211.76" speed="20.02"/>
            </lane>
        </edge>
        <edge id="4i">
            <lane id="4i_0">
                <vehicle id="flow2.1" pos="38.36" speed="10.54"/>
                <vehicle id="flow2.0" pos="206.76" speed="18.39"/>
            </lane>
        </edge>
    </timestep>
    <timestep time="16.00">
        <edge id="1i">
            <lane id="1i_0">
                <vehicle id="flow0.1" pos="50.01" speed="12.22"/>
                <vehicle id="flow0.0" pos="231.89" speed="20.07"/>
            </lane>
        </edge>
        <edge id="2i">
            <lane id="2i_0">
                <vehicle id="flow1.1" pos="49.60" speed="12.32"/>
                <vehicle id="flow1.0" pos="206.18" speed="17.35"/>
            </lane>
        </edge>
        <edge id="3i">
            <lane id="3i_0">
                <vehicle id="flow3.1" pos="47.82" speed="11.94"/>
                <vehicle id="flow3.0" pos="231.71" speed="19.95"/>
            </lane>
        </edge>
        <edge id="4i">
            <lane id="4i_0">
                <vehicle id="flow2.1" pos="51.14" speed="12.78"/>
                <vehicle id="flow2.0" pos="226.22" speed="19.46"/>
            </lane>
        </edge>
    </timestep>
    <timestep time="17.00">
        <edge id="1i">
            <lane id="1i_0">
                <vehicle id="flow0.1" pos="63.58" speed="13.57"/>
                <vehicle id="flow0.0" pos="251.92" speed="20.03"/>
            </lane>
        </edge>
        <edge id="2i">
            <lane id="2i_0">
                <vehicle id="flow1.1" pos="64.46" speed="14.86"/>
                <vehicle id="flow1.0" pos="223.54" speed="17.36"/>
            </lane>
        </edge>
        <edge id="3i">
            <lane id="3i_0">
                <vehicle id="flow3.1" pos="62.22" speed="14.40"/>
                <vehicle id="flow3.0" pos="252.02" speed="20.30"/>
            </lane>
        </edge>
        <edge id="4i">
            <lane id="4i_0">
                <vehicle id="flow2.1" pos="66.20" speed="15.06"/>
                <vehicle id="flow2.0" pos="245.60" speed="19.38"/>
            </lane>
        </edge>
    </timestep>
    <timestep time="18.00">
        <edge id="1i">
            <lane id="1i_0">
                <vehicle id="flow0.1" pos="78.97" speed="15.39"/>
                <vehicle id="flow0.0" pos="271.64" speed="19.71"/>
            </lane>
        </edge>
        <edge id="2i">
            <lane id="2i_0">
                <vehicle id="flow1.1" pos="80.12" speed="15.66"/>
                <vehicle id="flow1.0" pos="241.18" speed="17.64"/>
            </lane>
        </edge>
        <edge id="3i">
            <lane id="3i_0">
                <vehicle id="flow3.1" pos="78.11" speed="15.90"/>
                <vehicle id="flow3.0" pos="272.72" speed="20.70"/>
            </lane>
        </edge>
        <edge id="4i">
            <lane id="4i_0">
                <vehicle id="flow2.1" pos="82.89" speed="16.69"/>
                <vehicle id="flow2.0" pos="265.16" speed="19.56"/>
            </lane>
        </edge>
    </timestep>
    <timestep time="19.00">
        <edge id="1i">
            <lane id="1i_0">
                <vehicle id="flow0.1" pos="96.00" speed="17.03"/>
                <vehicle id="flow0.0" pos="291.92" speed="20.28"/>
            </lane>
        </edge>
        <edge id="2i">
            <lane id="2i_0">
                <vehicle id="flow1.1" pos="95.09" speed="14.97"/>
                <vehicle id="flow1.0" pos="258.72" speed="17.53"/>
            </lane>
        </edge>
        <edge id="3i">
            <lane id="3i_0">
                <vehicle id="flow3.1" pos="95.10" speed="16.99"/>
                <vehicle id="flow3.0" pos="293.34" speed="20.62"/>
            </lane>
        </edge>
        <edge id="4i">
            <lane id="4i_0">
                <vehicle id="flow2.1" pos="102.09" speed="19.20"/>
                <vehicle id="flow2.0" pos="284.72" speed="19.56"/>
            </lane>
        </edge>
    </timestep>
    <timestep time="20.00">
        <edge id="1i">
            <lane id="1i_0">
                <vehicle id="flow0.2" pos="5.10" speed="0.00"/>
                <vehicle id="flow0.1" pos="115.15" speed="19.14"/>
                <vehicle id="flow0.0" pos="311.26" speed="19.34"/>
            </lane>
        </edge>
        <edge id="2i">
            <lane id="2i_0">
                <vehicle id="flow1.2" pos="5.10" speed="0.00"/>
                <vehicle id="flow1.1" pos="110.68" speed="15.59"/>
                <vehicle id="flow1.0" pos="275.67" speed="16.96"/>
            </lane>
        </edge>
        <edge id="3i">
            <lane id="3i_0">
                <vehicle id="flow3.2" pos="5.10" speed="0.00"/>
                <vehicle id="flow3.1" pos="111.18" speed="16.08"/>
                <vehicle id="flow3.0" pos="313.92" speed="20.59"/>
            </lane>
        </edge>
        <edge id="4i">
            <lane id="4i_0">
                <vehicle id="flow2.2" pos="5.10" speed="0.00"/>
                <vehicle id="flow2.1" pos="122.06" speed="19.97"/>
                <vehicle id="flow2.0" pos="303.90" speed="19.18"/>
            </lane>
        </edge>
    </timestep>
    <timestep time="21.00">
        <edge id="1i">
            <lane id="1i_0">
                <vehicle id="flow0.2" pos="7.66" speed="2.56"/>
                <vehicle id="flow0.1" pos="135.16" speed="20.01"/>
                <vehicle id="flow0.0" pos="330.98" speed="19.71"/>
            </lane>
        </edge>
        <edge id="2i">
            <lane id="2i_0">
                <vehicle id="flow1.2" pos="6.50" speed="1.40"/>
                <vehicle id="flow1.1" pos="125.58" speed="14.90"/>
                <vehicle id="flow1.0" pos="293.00" speed="17.32"/>
            </lane>
        </edge>
        <edge id="3i">
            <lane id="3i_0">
                <vehicle id="flow3.2" pos="6.84" speed="1.74"/>
                <vehicle id="flow3.1" pos="128.06" speed="16.88"/>
                <vehicle id="flow3.0" pos="334.58" speed="20.66"/>
            </lane>
        </edge>
        <edge id="4i">
            <lane id="4i_0">
                <vehicle id="flow2.2" pos="7.31" speed="2.21"/>
                <vehicle id="flow2.1" pos="142.07" speed="20.01"/>
                <vehicle id="flow2.0" pos="323.52" speed="19.61"/>
            </lane>
        </edge>
    </timestep>
    <timestep time="22.00">
        <edge id="1i">
            <lane id="1i_0">
                <vehicle id="flow0.2" pos="12.07" speed="4.41"/>
                <vehicle id="flow0.1" pos="154.03" speed="18.87"/>
                <vehicle id="flow0.0" pos="350.95" speed="19.98"/>
            </lane>
        </edge>
        <edge id="2i">
            <lane id="2i_0">
                <vehicle id="flow1.2" pos="9.70" speed="3.21"/>
                <vehicle id="flow1.1" pos="140.53" speed="14.95"/>
                <vehicle id="flow1.0" pos="310.83" speed="17.83"/>
            </lane>
        </edge>
        <edge id="3i">
            <lane id="3i_0">
                <vehicle id="flow3.2" pos="10.89" speed="4.05"/>
                <vehicle id="flow3.1" pos="144.07" speed="16.02"/>
                <vehicle id="flow3.0" pos="355.30" speed="20.72"/>
            </lane>
        </edge>
        <edge id="4i">
            <lane id="4i_0">
                <vehicle id="flow2.2" pos="11.32" speed="4.00"/>
                <vehicle id="flow2.1" pos="161.88" speed="19.81"/>
                <vehicle id="flow2.0" pos="342.67" speed="19.15"/>
            </lane>
        </edge>
    </timestep>
    <timestep time="23.00">
        <edge id="1i">
            <lane id="1i_0">
                <vehicle id="flow0.2" pos="18.71" speed="6.64"/>
                <vehicle id="flow0.1" pos="173.04" speed="19.02"/>
                <vehicle id="flow0.0" pos="371.24" speed="20.29"/>
            </lane>
        </edge>
        <edge id="2i">
            <lane id="2i_0">
                <vehicle id="flow1.2" pos="14.23" speed="4.53"/>
                <vehicle id="flow1.1" pos="156.66" speed="16.13"/>
                <vehicle id="flow1.0" pos="327.77" speed="16.94"/>
            </lane>
        </edge>
        <edge id="3i">
            <lane id="3i_0">
                <vehicle id="flow3.2" pos="16.34" speed="5.45"/>
                <vehicle id="flow3.1" pos="161.04" speed="16.97"/>
                <vehicle id="flow3.0" pos="375.38" speed="20.08"/>
            </lane>
        </edge>
        <edge id="4i">
            <lane id="4i_0">
                <vehicle id="flow2.2" pos="17.31" speed="5.99"/>
                <vehicle id="flow2.1" pos="182.19" speed="20.30"/>
                <vehicle id="flow2.0" pos="361.57" speed="18.91"/>
            </lane>
        </edge>
    </timestep>
    <timestep time="24.00">
        <edge id="1i">
            <lane id="1i_0">
                <vehicle id="flow0.2" pos="27.61" speed="8.90"/>
                <vehicle id="flow0.1" pos="192.67" speed="19.62"/>
                <vehicle id="flow0.0" pos="390.95" speed="19.71"/>
            </lane>
        </edge>
        <edge id="2i">
            <lane id="2i_0">
                <vehicle id="flow1.2" pos="20.90" speed="6.67"/>
                <vehicle id="flow1.1" pos="172.20" speed="15.55"/>
                <vehicle id="flow1.0" pos="345.05" speed="17.28"/>
            </lane>
        </edge>
        <edge id="3i">
            <lane id="3i_0">
                <vehicle id="flow3.2" pos="23.25" speed="6.91"/>
                <vehicle id="flow3.1" pos="177.11" speed="16.07"/>
                <vehicle id="flow3.0" pos="395.56" speed="20.18"/>
            </lane>
        </edge>
        <edge id="4i">
            <lane id="4i_0">
                <vehicle id="flow2.2" pos="24.93" speed="7.63"/>
                <vehicle id="flow2.1" pos="202.37" speed="20.19"/>
                <vehicle id="flow2.0" pos="380.32" speed="18.75"/>
            </lane>
        </edge>
    </timestep>
    <timestep time="25.00">
        <edge id="1i">
            <lane id="1i_0">
                <vehicle id="flow0.2" pos="38.37" speed="10.76"/>
                <vehicle id="flow0.1" pos="212.29" speed="19.63"/>
                <vehicle id="flow0.0" pos="410.94" speed="19.99"/>
            </lane>
        </edge>
        <edge id="2i">
            <lane id="2i_0">
                <vehicle id="flow1.2" pos="29.15" speed="8.25"/>
                <vehicle id="flow1.1" pos="187.96" speed="15.76"/>
                <vehicle id="flow1.0" pos="363.10" speed="18.05"/>
            </lane>
        </edge>
        <edge id="3i">
            <lane id="3i_0">
                <vehicle id="flow3.2" pos="31.76" speed="8.50"/>
                <vehicle id="flow3.1" pos="193.49" speed="16.38"/>
                <vehicle id="flow3.0" pos="415.51" speed="19.95"/>
            </lane>
        </edge>
        <edge id="4i">
            <lane id="4i_0">
                <vehicle id="flow2.2" pos="34.95" speed="10.02"/>
                <vehicle id="flow2.1" pos="222.43" speed="20.06"/>
                <vehicle id="flow2.0" pos="398.67" speed="18.34"/>
            </lane>
        </edge>
    </timestep>
    <timestep time="26.00">
        <edge id="1i">
            <lane id="1i_0">
                <vehicle id="flow0.2" pos="50.73" speed="12.35"/>
                <vehicle id="flow0.1" pos="231.32" speed="19.03"/>
                <vehicle id="flow0.0" pos="431.29" speed="20.35"/>
            </lane>
        </edge>
        <edge id="2i">
            <lane id="2i_0">
                <vehicle id="flow1.2" pos="38.95" speed="9.79"/>
                <vehicle id="flow1.1" pos="203.52" speed="15.55"/>
                <vehicle id="flow1.0" pos="381.07" speed="17.97"/>
            </lane>
        </edge>
        <edge id="3i">
            <lane id="3i_0">
                <vehicle id="flow3.2" pos="41.93" speed="10.18"/>
                <vehicle id="flow3.1" pos="209.57" speed="16.07"/>
                <vehicle id="flow3.0" pos="435.65" speed="20.14"/>
            </lane>
        </edge>
        <edge id="4i">
            <lane id="4i_0">
                <vehicle id="flow2.2" pos="46.80" speed="11.85"/>
                <vehicle id="flow2.1" pos="241.82" speed="19.38"/>
                <vehicle id="flow2.0" pos="417.16" speed="18.49"/>
            </lane>
        </edge>
    </timestep>
    <timestep time="27.00">
        <edge id="1i">
            <lane id="1i_0">
                <vehicle id="flow0.2" pos="65.22" speed="14.49"/>
                <vehicle id="flow0.1" pos="251.32" speed="20.00"/>
                <vehicle id="flow0.0" pos="450.94" speed="19.65"/>
            </lane>
        </edge>
        <edge id="2i">
            <lane id="2i_0">
                <vehicle id="flow1.2" pos="50.87" speed="11.92"/>
                <vehicle id="flow1.1" pos="219.22" speed="15.71"/>
                <vehicle id="flow1.0" pos="398.08" speed="17.01"/>
            </lane>
        </edge>
        <edge id="3i">
            <lane id="3i_0">
                <vehicle id="flow3.2" pos="53.52" speed="11.58"/>
                <vehicle id="flow3.1" pos="226.03" speed="16.47"/>
                <vehicle id="flow3.0" pos="456.68" speed="21.04"/>
            </lane>
        </edge>
        <edge id="4i">
            <lane id="4i_0">
                <vehicle id="flow2.2" pos="60.68" speed="13.88"/>
                <vehicle id="flow2.1" pos="261.25" speed="19.43"/>
                <vehicle id="flow2.0" pos="436.27" speed="19.11"/>
            </lane>
        </edge>
    </timestep>
    <timestep time="28.00">
        <edge id="1i">
            <lane id="1i_0">
                <vehicle id="flow0.2" pos="81.90" speed="16.68"/>
                <vehicle id="flow0.1" pos="271.15" speed="19.82"/>
                <vehicle id="flow0.0" pos="468.17" speed="17.22"/>
            </lane>
        </edge>
        <edge id="2i">
            <lane id="2i_0">
                <vehicle id="flow1.2" pos="64.77" speed="13.91"/>
                <vehicle id="flow1.1" pos="234.68" speed="15.46"/>
                <vehicle id="flow1.0" pos="416.28" speed="18.19"/>
            </lane>
        </edge>
        <edge id="3i">
            <lane id="3i_0">
                <vehicle id="flow3.2" pos="67.02" speed="13.51"/>
                <vehicle id="flow3.1" pos="242.29" speed="16.26"/>
                <vehicle id="flow3.0" pos="477.11" speed="20.43"/>
            </lane>
        </edge>
        <edge id="4i">
            <lane id="4i_0">
                <vehicle id="flow2.2" pos="76.79" speed="16.11"/>
                <vehicle id="flow2.1" pos="280.84" speed="19.60"/>
                <vehicle id="flow2.0" pos="454.93" speed="18.66"/>
            </lane>
        </edge>
    </timestep>
    <timestep time="29.00">
        <edge id="1i">
            <lane id="1i_0">
                <vehicle id="flow0.2" pos="99.68" speed="17.78"/>
                <vehicle id="flow0.1" pos="290.20" speed="19.05"/>
                <vehicle id="flow0.0" pos="480.89" speed="12.72"/>
            </lane>
        </edge>
        <edge id="2i">
            <lane id="2i_0">
                <vehicle id="flow1.2" pos="81.16" speed="16.38"/>
                <vehicle id="flow1.1" pos="250.02" speed="15.34"/>
                <vehicle id="flow1.0" pos="433.83" speed="17.55"/>
            </lane>
        </edge>
        <edge id="3i">
            <lane id="3i_0">
                <vehicle id="flow3.2" pos="82.78" speed="15.76"/>
                <vehicle id="flow3.1" pos="259.18" speed="16.89"/>
                <vehicle id="flow3.0" pos="493.04" speed="15.93"/>
            </lane>
        </edge>
        <edge id="4i">
            <lane id="4i_0">
                <vehicle id="flow2.2" pos="95.00" speed="18.21"/>
                <vehicle id="flow2.1" pos="300.61" speed="19.76"/>
                <vehicle id="flow2.0" pos="474.08" speed="19.15"/>
            </lane>
        </edge>
    </timestep>
    <timestep time="30.00">
        <edge id=":0_2">