<?xml version="1.0" encoding="UTF-8"?>

<!-- generated on 12/16/19 15:17:59 by Eclipse SUMO GUI Version 1.3.1
<configuration xmlns:xsi="http://www.w3.org/2001/XMLSchema-instance" xsi:noNamespaceSchemaLocation="http://sumo.dlr.de/xsd/sumoConfiguration.xsd">

    <input>
        <net-file value="C:\Users\AvisChiu\Desktop\sumo-1.3.1\bin\document\create%20demand\cross.net.xml"/>
        <route-files value="C:\Users\AvisChiu\Desktop\sumo-1.3.1\bin\document\create%20demand\ex_ROU.rou.xml"/>
    </input>

    <output>
        <netstate-dump value="C:\Users\AvisChiu\Desktop\sumo-1.3.1\bin\document\create%20demand\ex_sumo.sumo.tr"/>
        <tripinfo-output value="C:\Users\AvisChiu\Desktop\sumo-1.3.1\bin\document\create%20demand\output-tripinfos.xml"/>
        <vehroute-output value="C:\Users\AvisChiu\Desktop\sumo-1.3.1\bin\document\create%20demand\output-vehroutes.xml"/>
    </output>

    <time>
        <begin value="0"/>
        <end value="1010"/>
    </time>

    <processing>
        <route-steps value="-1"/>
        <time-to-teleport value="-1"/>
    </processing>

    <report>
        <print-options value="false"/>
    </report>

    <random_number>
        <seed value="23423"/>
    </random_number>

</configuration>
-->

<routes xmlns:xsi="http://www.w3.org/2001/XMLSchema-instance" xsi:noNamespaceSchemaLocation="http://sumo.dlr.de/xsd/routes_file.xsd">
    <vehicle id="flow3.0" depart="0.00" arrival="74.00">
        <route edges="3i 4o"/>
    </vehicle>

    <vehicle id="flow2.0" depart="0.00" arrival="78.00">
        <route edges="4i 3o"/>
    </vehicle>

    <vehicle id="flow0.0" depart="0.00" arrival="84.00">
        <route edges="1i 2o"/>
    </vehicle>

    <vehicle id="flow0.1" depart="10.00" arrival="88.00">
        <route edges="1i 2o"/>
    </vehicle>

    <vehicle id="flow1.0" depart="0.00" arrival="90.00">
        <route edges="2i 1o"/>
    </vehicle>

    <vehicle id="flow0.2" depart="20.00" arrival="103.00">
        <route edges="1i 2o"/>
    </vehicle>

    <vehicle id="flow1.1" depart="10.00" arrival="105.00">
        <route edges="2i 1o"/>
    </vehicle>

    <vehicle id="flow0.3" depart="30.00" arrival="107.00">
        <route edges="1i 2o"/>
    </vehicle>

    <vehicle id="flow1.2" depart="20.00" arrival="113.00">
        <route edges="2i 1o"/>
    </vehicle>

    <vehicle id="flow1.3" depart="30.00" arrival="114.00">
        <route edges="2i 1o"/>
    </vehicle>

    <vehicle id="flow2.1" depart="10.00" arrival="122.00">
        <route edges="4i 3o"/>
    </vehicle>

    <vehicle id="flow2.2" depart="20.00" arrival="124.00">
        <route edges="4i 3o"/>
    </vehicle>

    <vehicle id="flow2.3" depart="30.00" arrival="129.00">
        <route edges="4i 3o"/>
    </vehicle>

    <vehicle id="flow3.1" depart="10.00" arrival="130.00">
        <route edges="3i 4o"/>
    </vehicle>

    <vehicle id="flow3.2" depart="20.00" arrival="132.00">
        <route edges="3i 4o"/>
    </vehicle>

    <vehicle id="flow2.4" depart="40.00" arrival="133.00">
        <route edges="4i 3o"/>
    </vehicle>

    <vehicle id="flow3.3" depart="30.00" arrival="134.00">
        <route edges="3i 4o"/>
    </vehicle>

    <vehicle id="flow3.4" depart="40.00" arrival="136.00">
        <route edges="3i 4o"/>
    </vehicle>

    <vehicle id="flow2.5" depart="50.00" arrival="136.00">
        <route edges="4i 3o"/>
    </vehicle>

    <vehicle id="flow3.5" depart="50.00" arrival="139.00">
        <route edges="3i 4o"/>
    </vehicle>

    <vehicle id="flow3.6" depart="60.00" arrival="142.00">
        <route edges="3i 4o"/>
    </vehicle>

    <vehicle id="flow3.7" depart="70.00" arrival="144.00">
        <route edges="3i 4o"/>
    </vehicle>

    <vehicle id="flow2.6" depart="60.00" arrival="146.00">
        <route edges="4i 3o"/>
    </vehicle>

    <vehicle id="flow2.7" depart="70.00" arrival="148.00">
        <route edges="4i 3o"/>
    </vehicle>

    <vehicle id="flow1.4" depart="40.00" arrival="165.00">
        <route edges="2i 1o"/>
    </vehicle>

    <vehicle id="flow1.5" depart="50.00" arrival="167.00">
        <route edges="2i 1o"/>
    </vehicle>

    <vehicle id="flow0.4" depart="40.00" arrival="168.00">
        <route edges="1i 2o"/>
    </vehicle>

    <vehicle id="flow0.5" depart="50.00" arrival="169.00">
        <route edges="1i 2o"/>
    </vehicle>

    <vehicle id="flow1.6" depart="60.00" arrival="173.00">
        <route edges="2i 1o"/>
    </vehicle>

    <vehicle id="flow0.6" depart="60.00" arrival="175.00">
        <route edges="1i 2o"/>
    </vehicle>

    <vehicle id="flow1.7" depart="70.00" arrival="175.00">
        <route edges="2i 1o"/>
    </vehicle>

    <vehicle id="flow1.8" depart="80.00" arrival="176.00">
        <route edges="2i 1o"/>
    </vehicle>

    <vehicle id="flow0.7" depart="70.00" arrival="177.00">
        <route edges="1i 2o"/>
    </vehicle>

    <vehicle id="flow1.9" depart="90.00" arrival="178.00">
        <route edges="2i 1o"/>
    </vehicle>

    <vehicle id="flow0.8" depart="80.00" arrival="179.00">
        <route edges="1i 2o"/>
    </vehicle>

    <vehicle id="flow0.9" depart="90.00" arrival="181.00">
        <route edges="1i 2o"/>
    </vehicle>

    <vehicle id="flow0.10" depart="100.00" arrival="183.00">
        <route edges="1i 2o"/>
    </vehicle>

    <vehicle id="flow1.10" depart="100.00" arrival="183.00">
        <route edges="2i 1o"/>
    </vehicle>

    <vehicle id="flow1.11" depart="110.00" arrival="185.00">
        <route edges="2i 1o"/>
    </vehicle>

    <vehicle id="flow0.11" depart="110.00" arrival="187.00">
        <route edges="1i 2o"/>
    </vehicle>

    <vehicle id="flow3.8" depart="80.00" arrival="197.00">
        <route edges="3i 4o"/>
    </vehicle>

    <vehicle id="flow2.8" depart="80.00" arrival="198.00">
        <route edges="4i 3o"/>
    </vehicle>

    <vehicle id="flow2.9" depart="90.00" arrival="200.00">
        <route edges="4i 3o"/>
    </vehicle>

    <vehicle id="flow2.10" depart="100.00" arrival="201.00">
        <route edges="4i 3o"/>
    </vehicle>

    <vehicle id="flow2.11" depart="110.00" arrival="204.00">
        <route edges="4i 3o"/>
    </vehicle>

    <vehicle id="flow3.9" depart="90.00" arrival="206.00">
        <route edges="3i 4o"/>
    </vehicle>

    <vehicle id="flow3.10" depart="100.00" arrival="208.00">
        <route edges="3i 4o"/>
    </vehicle>

    <vehicle id="flow3.11" depart="110.00" arrival="210.00">
        <route edges="3i 4o"/>
    </vehicle>

    <vehicle id="flow3.12" depart="124.00" arrival="212.00">
        <route edges="3i 4o"/>
    </vehicle>

    <vehicle id="flow2.12" depart="120.00" arrival="214.00">
        <route edges="4i 3o"/>
    </vehicle>

    <vehicle id="flow3.13" depart="130.00" arrival="214.00">
        <route edges="3i 4o"/>
    </vehicle>

    <vehicle id="flow2.13" depart="130.00" arrival="216.00">
        <route edges="4i 3o"/>
    </vehicle>

    <vehicle id="flow2.14" depart="140.00" arrival="218.00">
        <route edges="4i 3o"/>
    </vehicle>

    <vehicle id="flow3.14" depart="140.00" arrival="221.00">
        <route edges="3i 4o"/>
    </vehicle>

    <vehicle id="flow0.12" depart="120.00" arrival="242.00">
        <route edges="1i 2o"/>
    </vehicle>

    <vehicle id="flow1.12" depart="120.00" arrival="244.00">
        <route edges="2i 1o"/>
    </vehicle>

    <vehicle id="flow0.13" depart="130.00" arrival="244.00">
        <route edges="1i 2o"/>
    </vehicle>

    <vehicle id="flow1.13" depart="130.00" arrival="246.00">
        <route edges="2i 1o"/>
    </vehicle>

    <vehicle id="flow0.14" depart="140.00" arrival="246.00">
        <route edges="1i 2o"/>
    </vehicle>

    <vehicle id="flow1.14" depart="140.00" arrival="247.00">
        <route edges="2i 1o"/>
    </vehicle>

    <vehicle id="flow0.15" depart="150.00" arrival="248.00">
        <route edges="1i 2o"/>
    </vehicle>

    <vehicle id="flow1.15" depart="150.00" arrival="249.00">
        <route edges="2i 1o"/>
    </vehicle>

    <vehicle id="flow0.16" depart="160.00" arrival="250.00">
        <route edges="1i 2o"/>
    </vehicle>

    <vehicle id="flow1.16" depart="160.00" arrival="252.00">
        <route edges="2i 1o"/>
    </vehicle>

    <vehicle id="flow0.17" depart="170.00" arrival="252.00">
        <route edges="1i 2o"/>
    </vehicle>

    <vehicle id="flow1.17" depart="170.00" arrival="254.00">
        <route edges="2i 1o"/>
    </vehicle>

    <vehicle id="flow1.18" depart="181.00" arrival="257.00">
        <route edges="2i 1o"/>
    </vehicle>

    <vehicle id="flow0.18" depart="180.00" arrival="263.00">
        <route edges="1i 2o"/>
    </vehicle>

    <vehicle id="flow2.15" depart="150.00" arrival="272.00">
        <route edges="4i 3o"/>
    </vehicle>

    <vehicle id="flow3.15" depart="150.00" arrival="273.00">
        <route edges="3i 4o"/>
    </vehicle>

    <vehicle id="flow2.16" depart="160.00" arrival="279.00">
        <route edges="4i 3o"/>
    </vehicle>

    <vehicle id="flow3.16" depart="160.00" arrival="279.00">
        <route edges="3i 4o"/>
    </vehicle>

    <vehicle id="flow2.17" depart="170.00" arrival="281.00">
        <route edges="4i 3o"/>
    </vehicle>

    <vehicle id="flow3.17" depart="170.00" arrival="281.00">
        <route edges="3i 4o"/>
    </vehicle>

    <vehicle id="flow2.18" depart="180.00" arrival="283.00">
        <route edges="4i 3o"/>
    </vehicle>

    <vehicle id="flow3.18" depart="180.00" arrival="283.00">
        <route edges="3i 4o"/>
    </vehicle>

    <vehicle id="flow2.19" depart="190.00" arrival="285.00">
        <route edges="4i 3o"/>
    </vehicle>

    <vehicle id="flow3.19" depart="190.00" arrival="285.00">
        <route edges="3i 4o"/>
    </vehicle>

    <vehicle id="flow2.20" depart="200.00" arrival="287.00">
        <route edges="4i 3o"/>
    </vehicle>

    <vehicle id="flow3.20" depart="201.00" arrival="287.00">
        <route edges="3i 4o"/>
    </vehicle>

    <vehicle id="flow2.21" depart="210.00" arrival="289.00">
        <route edges="4i 3o"/>
    </vehicle>

    <vehicle id="flow3.21" depart="210.00" arrival="289.00">
        <route edges="3i 4o"/>
    </vehicle>

    <vehicle id="flow2.22" depart="221.00" arrival="299.00">
        <route edges="4i 3o"/>
    </vehicle>

    <vehicle id="flow0.19" depart="190.00" arrival="308.00">
        <route edges="1i 2o"/>
    </vehicle>

    <vehicle id="flow3.22" depart="220.00" arrival="308.00">
        <route edges="3i 4o"/>
    </vehicle>

    <vehicle id="flow1.19" depart="190.00" arrival="310.00">
        <route edges="2i 1o"/>
    </vehicle>

    <vehicle id="flow0.20" depart="200.00" arrival="310.00">
        <route edges="1i 2o"/>
    </vehicle>

    <vehicle id="flow1.20" depart="200.00" arrival="312.00">
        <route edges="2i 1o"/>
    </vehicle>

    <vehicle id="flow0.21" depart="210.00" arrival="312.00">
        <route edges="1i 2o"/>
    </vehicle>

    <vehicle id="flow1.21" depart="210.00" arrival="314.00">
        <route edges="2i 1o"/>
    </vehicle>

    <vehicle id="flow0.22" depart="220.00" arrival="315.00">
        <route edges="1i 2o"/>
    </vehicle>

    <vehicle id="flow1.22" depart="220.00" arrival="316.00">
        <route edges="2i 1o"/>
    </vehicle>

    <vehicle id="flow1.23" depart="230.00" arrival="321.00">
        <route edges="2i 1o"/>
    </vehicle>

    <vehicle id="flow1.24" depart="240.00" arrival="327.00">
        <route edges="2i 1o"/>
    </vehicle>

    <vehicle id="flow0.23" depart="230.00" arrival="328.00">
        <route edges="1i 2o"/>
    </vehicle>

    <vehicle id="flow0.24" depart="240.00" arrival="330.00">
        <route edges="1i 2o"/>
    </vehicle>

    <vehicle id="flow0.25" depart="250.00" arrival="332.00">
        <route edges="1i 2o"/>
    </vehicle>

    <vehicle id="flow1.25" depart="252.00" arrival="335.00">
        <route edges="2i 1o"/>
    </vehicle>

    <vehicle id="flow1.26" depart="260.00" arrival="337.00">
        <route edges="2i 1o"/>
    </vehicle>

    <vehicle id="flow2.23" depart="230.00" arrival="342.00">
        <route edges="4i 3o"/>
    </vehicle>

    <vehicle id="flow3.23" depart="230.00" arrival="343.00">
        <route edges="3i 4o"/>
    </vehicle>

    <vehicle id="flow2.24" depart="240.00" arrival="344.00">
        <route edges="4i 3o"/>
    </vehicle>

    <vehicle id="flow3.24" depart="240.00" arrival="345.00">
        <route edges="3i 4o"/>
    </vehicle>

    <vehicle id="flow2.25" depart="250.00" arrival="352.00">
        <route edges="4i 3o"/>
    </vehicle>

    <vehicle id="flow3.25" depart="250.00" arrival="353.00">
        <route edges="3i 4o"/>
    </vehicle>

    <vehicle id="flow2.26" depart="260.00" arrival="353.00">
        <route edges="4i 3o"/>
    </vehicle>

    <vehicle id="flow3.26" depart="260.00" arrival="355.00">
        <route edges="3i 4o"/>
    </vehicle>

    <vehicle id="flow2.27" depart="270.00" arrival="358.00">
        <route edges="4i 3o"/>
    </vehicle>

    <vehicle id="flow2.28" depart="281.00" arrival="360.00">
        <route edges="4i 3o"/>
    </vehicle>

    <vehicle id="flow3.27" depart="272.00" arrival="363.00">
        <route edges="3i 4o"/>
    </vehicle>

    <vehicle id="flow3.28" depart="281.00" arrival="367.00">
        <route edges="3i 4o"/>
    </vehicle>

    <vehicle id="flow3.29" depart="290.00" arrival="369.00">
        <route edges="3i 4o"/>
    </vehicle>

    <vehicle id="flow2.29" depart="290.00" arrival="370.00">
        <route edges="4i 3o"/>
    </vehicle>

    <vehicle id="flow1.27" depart="270.00" arrival="385.00">
        <route edges="2i 1o"/>
    </vehicle>

    <vehicle id="flow1.28" depart="280.00" arrival="387.00">
        <route edges="2i 1o"/>
    </vehicle>

    <vehicle id="flow0.26" depart="260.00" arrival="389.00">
        <route edges="1i 2o"/>
    </vehicle>

    <vehicle id="flow1.29" depart="290.00" arrival="389.00">
        <route edges="2i 1o"/>
    </vehicle>

    <vehicle id="flow1.30" depart="300.00" arrival="390.00">
        <route edges="2i 1o"/>
    </vehicle>

    <vehicle id="flow0.27" depart="270.00" arrival="391.00">
        <route edges="1i 2o"/>
    </vehicle>

    <vehicle id="flow0.28" depart="280.00" arrival="392.00">
        <route edges="1i 2o"/>
    </vehicle>

    <vehicle id="flow1.31" depart="312.00" arrival="392.00">
        <route edges="2i 1o"/>
    </vehicle>

    <vehicle id="flow0.29" depart="290.00" arrival="394.00">
        <route edges="1i 2o"/>
    </vehicle>

    <vehicle id="flow0.30" depart="300.00" arrival="397.00">
        <route edges="1i 2o"/>
    </vehicle>

    <vehicle id="flow0.31" depart="316.00" arrival="398.00">
        <route edges="1i 2o"/>
    </vehicle>

    <vehicle id="flow1.32" depart="320.00" arrival="399.00">
        <route edges="2i 1o"/>
    </vehicle>

    <vehicle id="flow0.32" depart="321.00" arrival="400.00">
        <route edges="1i 2o"/>
    </vehicle>

    <vehicle id="flow1.33" depart="330.00" arrival="407.00">
        <route edges="2i 1o"/>
    </vehicle>

    <vehicle id="flow0.33" depart="330.00" arrival="413.00">
        <route edges="1i 2o"/>
    </vehicle>

    <vehicle id="flow2.30" depart="300.00" arrival="419.00">
        <route edges="4i 3o"/>
    </vehicle>

    <vehicle id="flow3.30" depart="300.00" arrival="419.00">
        <route edges="3i 4o"/>
    </vehicle>

    <vehicle id="flow2.31" depart="310.00" arrival="421.00">
        <route edges="4i 3o"/>
    </vehicle>

    <vehicle id="flow2.32" depart="320.00" arrival="423.00">
        <route edges="4i 3o"/>
    </vehicle>

    <vehicle id="flow2.33" depart="330.00" arrival="424.00">
        <route edges="4i 3o"/>
    </vehicle>

    <vehicle id="flow2.34" depart="340.00" arrival="428.00">
        <route edges="4i 3o"/>
    </vehicle>

    <vehicle id="flow3.31" depart="310.00" arrival="433.00">
        <route edges="3i 4o"/>
    </vehicle>

    <vehicle id="flow2.35" depart="350.00" arrival="434.00">
        <route edges="4i 3o"/>
    </vehicle>

    <vehicle id="flow3.32" depart="320.00" arrival="435.00">
        <route edges="3i 4o"/>
    </vehicle>

    <vehicle id="flow3.33" depart="330.00" arrival="437.00">
        <route edges="3i 4o"/>
    </vehicle>

    <vehicle id="flow3.34" depart="344.00" arrival="438.00">
        <route edges="3i 4o"/>
    </vehicle>

    <vehicle id="flow3.35" depart="353.00" arrival="440.00">
        <route edges="3i 4o"/>
    </vehicle>

    <vehicle id="flow3.36" depart="360.00" arrival="442.00">
        <route edges="3i 4o"/>
    </vehicle>

    <vehicle id="flow2.36" depart="360.00" arrival="448.00">
        <route edges="4i 3o"/>
    </vehicle>

    <vehicle id="flow3.37" depart="370.00" arrival="448.00">
        <route edges="3i 4o"/>
    </vehicle>

    <vehicle id="flow0.34" depart="340.00" arrival="452.00">
        <route edges="1i 2o"/>
    </vehicle>

    <vehicle id="flow0.35" depart="350.00" arrival="454.00">
        <route edges="1i 2o"/>
    </vehicle>

    <vehicle id="flow1.34" depart="340.00" arrival="457.00">
        <route edges="2i 1o"/>
    </vehicle>

    <vehicle id="flow1.35" depart="350.00" arrival="459.00">
        <route edges="2i 1o"/>
    </vehicle>

    <vehicle id="flow1.36" depart="360.00" arrival="460.00">
        <route edges="2i 1o"/>
    </vehicle>

    <vehicle id="flow1.37" depart="370.00" arrival="463.00">
        <route edges="2i 1o"/>
    </vehicle>

    <vehicle id="flow1.38" depart="380.00" arrival="469.00">
        <route edges="2i 1o"/>
    </vehicle>

    <vehicle id="flow1.39" depart="392.00" arrival="471.00">
        <route edges="2i 1o"/>
    </vehicle>

    <vehicle id="flow1.40" depart="400.00" arrival="474.00">
        <route edges="2i 1o"/>
    </vehicle>

    <vehicle id="flow0.36" depart="360.00" arrival="479.00">
        <route edges="1i 2o"/>
    </vehicle>

    <vehicle id="flow0.37" depart="370.00" arrival="481.00">
        <route edges="1i 2o"/>
    </vehicle>

    <vehicle id="flow0.38" depart="380.00" arrival="483.00">
        <route edges="1i 2o"/>
    </vehicle>

    <vehicle id="flow0.39" depart="390.00" arrival="485.00">
        <route edges="1i 2o"/>
    </vehicle>

    <vehicle id="flow3.38" depart="380.00" arrival="489.00">
        <route edges="3i 4o"/>
    </vehicle>

    <vehicle id="flow0.40" depart="400.00" arrival="489.00">
        <route edges="1i 2o"/>
    </vehicle>

    <vehicle id="flow3.39" depart="390.00" arrival="491.00">
        <route edges="3i 4o"/>
    </vehicle>

    <vehicle id="flow3.40" depart="400.00" arrival="493.00">
        <route edges="3i 4o"/>
    </vehicle>

    <vehicle id="flow2.37" depart="370.00" arrival="495.00">
        <route edges="4i 3o"/>
    </vehicle>

    <vehicle id="flow2.38" depart="380.00" arrival="497.00">
        <route edges="4i 3o"/>
    </vehicle>

    <vehicle id="flow3.41" depart="410.00" arrival="499.00">
        <route edges="3i 4o"/>
    </vehicle>

    <vehicle id="flow2.39" depart="390.00" arrival="504.00">
        <route edges="4i 3o"/>
    </vehicle>

    <vehicle id="flow2.40" depart="400.00" arrival="506.00">
        <route edges="4i 3o"/>
    </vehicle>

    <vehicle id="flow2.41" depart="410.00" arrival="508.00">
        <route edges="4i 3o"/>
    </vehicle>

    <vehicle id="flow2.42" depart="420.00" arrival="509.00">
        <route edges="4i 3o"/>
    </vehicle>

    <vehicle id="flow3.42" depart="424.00" arrival="512.00">
        <route edges="3i 4o"/>
    </vehicle>

    <vehicle id="flow2.43" depart="430.00" arrival="512.00">
        <route edges="4i 3o"/>
    </vehicle>

    <vehicle id="flow2.44" depart="440.00" arrival="514.00">
        <route edges="4i 3o"/>
    </vehicle>

    <vehicle id="flow3.43" depart="430.00" arrival="517.00">
        <route edges="3i 4o"/>
    </vehicle>

    <vehicle id="flow3.44" depart="440.00" arrival="518.00">
        <route edges="3i 4o"/>
    </vehicle>

    <vehicle id="flow0.41" depart="410.00" arrival="529.00">
        <route edges="1i 2o"/>
    </vehicle>

    <vehicle id="flow0.42" depart="420.00" arrival="534.00">
        <route edges="1i 2o"/>
    </vehicle>

    <vehicle id="flow1.41" depart="410.00" arrival="536.00">
        <route edges="2i 1o"/>
    </vehicle>

    <vehicle id="flow1.42" depart="420.00" arrival="538.00">
        <route edges="2i 1o"/>
    </vehicle>

    <vehicle id="flow1.43" depart="430.00" arrival="539.00">
        <route edges="2i 1o"/>
    </vehicle>

    <vehicle id="flow0.43" depart="430.00" arrival="542.00">
        <route edges="1i 2o"/>
    </vehicle>

    <vehicle id="flow1.44" depart="440.00" arrival="542.00">
        <route edges="2i 1o"/>
    </vehicle>

    <vehicle id="flow1.45" depart="450.00" arrival="543.00">
        <route edges="2i 1o"/>
    </vehicle>

    <vehicle id="flow0.44" depart="440.00" arrival="544.00">
        <route edges="1i 2o"/>
    </vehicle>

    <vehicle id="flow0.45" depart="450.00" arrival="546.00">
        <route edges="1i 2o"/>
    </vehicle>

    <vehicle id="flow1.46" depart="460.00" arrival="546.00">
        <route edges="2i 1o"/>
    </vehicle>

    <vehicle id="flow0.46" depart="460.00" arrival="548.00">
        <route edges="1i 2o"/>
    </vehicle>

    <vehicle id="flow1.47" depart="470.00" arrival="551.00">
        <route edges="2i 1o"/>
    </vehicle>

    <vehicle id="flow0.47" depart="471.00" arrival="552.00">
        <route edges="1i 2o"/>
    </vehicle>

    <vehicle id="flow0.48" depart="480.00" arrival="554.00">
        <route edges="1i 2o"/>
    </vehicle>

    <vehicle id="flow1.48" depart="481.00" arrival="555.00">
        <route edges="2i 1o"/>
    </vehicle>

    <vehicle id="flow3.45" depart="450.00" arrival="564.00">
        <route edges="3i 4o"/>
    </vehicle>

    <vehicle id="flow2.45" depart="450.00" arrival="567.00">
        <route edges="4i 3o"/>
    </vehicle>

    <vehicle id="flow2.46" depart="460.00" arrival="569.00">
        <route edges="4i 3o"/>
    </vehicle>

    <vehicle id="flow3.46" depart="460.00" arrival="576.00">
        <route edges="3i 4o"/>
    </vehicle>

    <vehicle id="flow2.47" depart="470.00" arrival="578.00">
        <route edges="4i 3o"/>
    </vehicle>

    <vehicle id="flow3.47" depart="470.00" arrival="578.00">
        <route edges="3i 4o"/>
    </vehicle>

    <vehicle id="flow2.48" depart="480.00" arrival="580.00">
        <route edges="4i 3o"/>
    </vehicle>

    <vehicle id="flow2.49" depart="491.00" arrival="582.00">
        <route edges="4i 3o"/>
    </vehicle>

    <vehicle id="flow3.48" depart="480.00" arrival="583.00">
        <route edges="3i 4o"/>
    </vehicle>

    <vehicle id="flow2.50" depart="500.00" arrival="584.00">
        <route edges="4i 3o"/>
    </vehicle>

    <vehicle id="flow3.49" depart="490.00" arrival="587.00">
        <route edges="3i 4o"/>
    </vehicle>

    <vehicle id="flow3.50" depart="500.00" arrival="588.00">
        <route edges="3i 4o"/>
    </vehicle>

    <vehicle id="flow2.51" depart="510.00" arrival="588.00">
        <route edges="4i 3o"/>
    </vehicle>

    <vehicle id="flow3.51" depart="510.00" arrival="591.00">
        <route edges="3i 4o"/>
    </vehicle>

    <vehicle id="flow2.52" depart="520.00" arrival="592.00">
        <route edges="4i 3o"/>
    </vehicle>

    <vehicle id="flow0.49" depart="490.00" arrival="604.00">
        <route edges="1i 2o"/>
    </vehicle>

    <vehicle id="flow0.50" depart="500.00" arrival="610.00">
        <route edges="1i 2o"/>
    </vehicle>

    <vehicle id="flow1.49" depart="490.00" arrival="612.00">
        <route edges="2i 1o"/>
    </vehicle>

    <vehicle id="flow0.51" depart="510.00" arrival="612.00">
        <route edges="1i 2o"/>
    </vehicle>

    <vehicle id="flow1.50" depart="500.00" arrival="614.00">
        <route edges="2i 1o"/>
    </vehicle>

    <vehicle id="flow0.52" depart="520.00" arrival="614.00">
        <route edges="1i 2o"/>
    </vehicle>

    <vehicle id="flow1.51" depart="510.00" arrival="616.00">
        <route edges="2i 1o"/>
    </vehicle>

    <vehicle id="flow0.53" depart="530.00" arrival="616.00">
        <route edges="1i 2o"/>
    </vehicle>

    <vehicle id="flow1.52" depart="520.00" arrival="618.00">
        <route edges="2i 1o"/>
    </vehicle>

    <vehicle id="flow1.53" depart="530.00" arrival="620.00">
        <route edges="2i 1o"/>
    </vehicle>

    <vehicle id="flow1.54" depart="540.00" arrival="622.00">
        <route edges="2i 1o"/>
    </vehicle>

    <vehicle id="flow1.55" depart="550.00" arrival="623.00">
        <route edges="2i 1o"/>
    </vehicle>

    <vehicle id="flow0.54" depart="543.00" arrival="626.00">
        <route edges="1i 2o"/>
    </vehicle>

    <vehicle id="flow0.55" depart="551.00" arrival="630.00">
        <route edges="1i 2o"/>
    </vehicle>

    <vehicle id="flow3.52" depart="520.00" arrival="641.00">
        <route edges="3i 4o"/>
    </vehicle>

    <vehicle id="flow3.53" depart="530.00" arrival="643.00">
        <route edges="3i 4o"/>
    </vehicle>

    <vehicle id="flow2.53" depart="530.00" arrival="652.00">
        <route edges="4i 3o"/>
    </vehicle>

    <vehicle id="flow3.54" depart="540.00" arrival="653.00">
        <route edges="3i 4o"/>
    </vehicle>

    <vehicle id="flow2.54" depart="540.00" arrival="654.00">
        <route edges="4i 3o"/>
    </vehicle>

    <vehicle id="flow3.55" depart="550.00" arrival="654.00">
        <route edges="3i 4o"/>
    </vehicle>

    <vehicle id="flow2.55" depart="550.00" arrival="656.00">
        <route edges="4i 3o"/>
    </vehicle>

    <vehicle id="flow3.56" depart="560.00" arrival="656.00">
        <route edges="3i 4o"/>
    </vehicle>

    <vehicle id="flow2.56" depart="560.00" arrival="658.00">
        <route edges="4i 3o"/>
    </vehicle>

    <vehicle id="flow3.57" depart="570.00" arrival="658.00">
        <route edges="3i 4o"/>
    </vehicle>

    <vehicle id="flow2.57" depart="570.00" arrival="660.00">
        <route edges="4i 3o"/>
    </vehicle>

    <vehicle id="flow2.58" depart="580.00" arrival="666.00">
        <route edges="4i 3o"/>
    </vehicle>

    <vehicle id="flow3.58" depart="584.00" arrival="667.00">
        <route edges="3i 4o"/>
    </vehicle>

    <vehicle id="flow2.59" depart="591.00" arrival="668.00">
        <route edges="4i 3o"/>
    </vehicle>

    <vehicle id="flow3.59" depart="590.00" arrival="669.00">
        <route edges="3i 4o"/>
    </vehicle>

    <vehicle id="flow0.56" depart="560.00" arrival="678.00">
        <route edges="1i 2o"/>
    </vehicle>

    <vehicle id="flow0.57" depart="570.00" arrival="680.00">
        <route edges="1i 2o"/>
    </vehicle>

    <vehicle id="flow1.56" depart="560.00" arrival="681.00">
        <route edges="2i 1o"/>
    </vehicle>

    <vehicle id="flow1.57" depart="570.00" arrival="683.00">
        <route edges="2i 1o"/>
    </vehicle>

    <vehicle id="flow0.58" depart="580.00" arrival="684.00">
        <route edges="1i 2o"/>
    </vehicle>

    <vehicle id="flow1.58" depart="580.00" arrival="685.00">
        <route edges="2i 1o"/>
    </vehicle>

    <vehicle id="flow0.59" depart="590.00" arrival="686.00">
        <route edges="1i 2o"/>
    </vehicle>

    <vehicle id="flow0.60" depart="600.00" arrival="690.00">
        <route edges="1i 2o"/>
    </vehicle>

    <vehicle id="flow1.59" depart="590.00" arrival="691.00">
        <route edges="2i 1o"/>
    </vehicle>

    <vehicle id="flow0.61" depart="612.00" arrival="692.00">
        <route edges="1i 2o"/>
    </vehicle>

    <vehicle id="flow1.60" depart="600.00" arrival="693.00">
        <route edges="2i 1o"/>
    </vehicle>

    <vehicle id="flow0.62" depart="623.00" arrival="694.00">
        <route edges="1i 2o"/>
    </vehicle>

    <vehicle id="flow1.61" depart="610.00" arrival="695.00">
        <route edges="2i 1o"/>
    </vehicle>

    <vehicle id="flow1.62" depart="620.00" arrival="696.00">
        <route edges="2i 1o"/>
    </vehicle>

    <vehicle id="flow2.60" depart="600.00" arrival="717.00">
        <route edges="4i 3o"/>
    </vehicle>

    <vehicle id="flow3.60" depart="600.00" arrival="717.00">
        <route edges="3i 4o"/>
    </vehicle>

    <vehicle id="flow2.61" depart="610.00" arrival="719.00">
        <route edges="4i 3o"/>
    </vehicle>

    <vehicle id="flow3.61" depart="610.00" arrival="719.00">
        <route edges="3i 4o"/>
    </vehicle>

    <vehicle id="flow2.62" depart="620.00" arrival="723.00">
        <route edges="4i 3o"/>
    </vehicle>

    <vehicle id="flow3.62" depart="620.00" arrival="727.00">
        <route edges="3i 4o"/>
    </vehicle>

    <vehicle id="flow2.63" depart="630.00" arrival="729.00">
        <route edges="4i 3o"/>
    </vehicle>

    <vehicle id="flow2.64" depart="643.00" arrival="731.00">
        <route edges="4i 3o"/>
    </vehicle>

    <vehicle id="flow2.65" depart="650.00" arrival="733.00">
        <route edges="4i 3o"/>
    </vehicle>

    <vehicle id="flow2.66" depart="660.00" arrival="741.00">
        <route edges="4i 3o"/>
    </vehicle>
